 Entering Gaussian System, Link 0=g03
 Input=amino2.com
 Output=amino2.log
 Initial command:
 /Applications/gaussian//g03/l1.exe /Users/butter/projects/kent/Mia/QM_di_peptoids/set_2/Gau-7054.inp -scrdir=/Users/butter/projects/kent/Mia/QM_di_peptoids/set_2/
 Entering Link 1 = /Applications/gaussian//g03/l1.exe PID=      7055.
  
 Copyright (c) 1988,1990,1992,1993,1995,1998,2003,2004,2007, Gaussian, Inc.
                  All Rights Reserved.
  
 This is the Gaussian(R) 03 program.  It is based on the
 the Gaussian(R) 98 system (copyright 1998, Gaussian, Inc.),
 the Gaussian(R) 94 system (copyright 1995, Gaussian, Inc.),
 the Gaussian 92(TM) system (copyright 1992, Gaussian, Inc.),
 the Gaussian 90(TM) system (copyright 1990, Gaussian, Inc.),
 the Gaussian 88(TM) system (copyright 1988, Gaussian, Inc.),
 the Gaussian 86(TM) system (copyright 1986, Carnegie Mellon
 University), and the Gaussian 82(TM) system (copyright 1983,
 Carnegie Mellon University). Gaussian is a federally registered
 trademark of Gaussian, Inc.
  
 This software contains proprietary and confidential information,
 including trade secrets, belonging to Gaussian, Inc.
  
 This software is provided under written license and may be
 used, copied, transmitted, or stored only in accord with that
 written license.
  
 The following legend is applicable only to US Government
 contracts under FAR:
  
                    RESTRICTED RIGHTS LEGEND
  
 Use, reproduction and disclosure by the US Government is
 subject to restrictions as set forth in subparagraphs (a)
 and (c) of the Commercial Computer Software - Restricted
 Rights clause in FAR 52.227-19.
  
 Gaussian, Inc.
 340 Quinnipiac St., Bldg. 40, Wallingford CT 06492
  
  
 ---------------------------------------------------------------
 Warning -- This program may not be used in any manner that
 competes with the business of Gaussian, Inc. or will provide
 assistance to any competitor of Gaussian, Inc.  The licensee
 of this program is prohibited from giving any competitor of
 Gaussian, Inc. access to this program.  By using this program,
 the user acknowledges that Gaussian, Inc. is engaged in the
 business of creating and licensing software in the field of
 computational chemistry and represents and warrants to the
 licensee that it is not a competitor of Gaussian, Inc. and that
 it will not use this program in any manner prohibited above.
 ---------------------------------------------------------------
  

 Cite this work as:
 Gaussian 03, Revision E.01,
 M. J. Frisch, G. W. Trucks, H. B. Schlegel, G. E. Scuseria, 
 M. A. Robb, J. R. Cheeseman, J. A. Montgomery, Jr., T. Vreven, 
 K. N. Kudin, J. C. Burant, J. M. Millam, S. S. Iyengar, J. Tomasi, 
 V. Barone, B. Mennucci, M. Cossi, G. Scalmani, N. Rega, 
 G. A. Petersson, H. Nakatsuji, M. Hada, M. Ehara, K. Toyota, 
 R. Fukuda, J. Hasegawa, M. Ishida, T. Nakajima, Y. Honda, O. Kitao, 
 H. Nakai, M. Klene, X. Li, J. E. Knox, H. P. Hratchian, J. B. Cross, 
 V. Bakken, C. Adamo, J. Jaramillo, R. Gomperts, R. E. Stratmann, 
 O. Yazyev, A. J. Austin, R. Cammi, C. Pomelli, J. W. Ochterski, 
 P. Y. Ayala, K. Morokuma, G. A. Voth, P. Salvador, J. J. Dannenberg, 
 V. G. Zakrzewski, S. Dapprich, A. D. Daniels, M. C. Strain, 
 O. Farkas, D. K. Malick, A. D. Rabuck, K. Raghavachari, 
 J. B. Foresman, J. V. Ortiz, Q. Cui, A. G. Baboul, S. Clifford, 
 J. Cioslowski, B. B. Stefanov, G. Liu, A. Liashenko, P. Piskorz, 
 I. Komaromi, R. L. Martin, D. J. Fox, T. Keith, M. A. Al-Laham, 
 C. Y. Peng, A. Nanayakkara, M. Challacombe, P. M. W. Gill, 
 B. Johnson, W. Chen, M. W. Wong, C. Gonzalez, and J. A. Pople, 
 Gaussian, Inc., Wallingford CT, 2004.
 
 ******************************************
 Gaussian 03:  EM64M-G03RevE.01 11-Sep-2007
                28-Jun-2010 
 ******************************************
 %Nproc=4
 Will use up to    4 processors via shared memory.
 %Chk=c400
 -----------------------------------------------
 # HF/6-31G(d) Opt SCF=Tight MaxDisk=5000Mb Test
 -----------------------------------------------
 1/18=20,38=1/1,3;
 2/9=110,17=6,18=5,40=1/2;
 3/5=1,6=6,7=1,11=9,16=1,25=1,30=1/1,2,3;
 4//1;
 5/5=2,32=2,38=5/2;
 6/7=2,8=2,9=2,10=2,28=1/1;
 7//1,2,3,16;
 1/18=20/3(3);
 2/9=110/2;
 6/7=2,8=2,9=2,10=2,19=2,28=1/1;
 99//99;
 2/9=110/2;
 3/5=1,6=6,7=1,11=9,16=1,25=1,30=1/1,2,3;
 4/5=5,16=3/1;
 5/5=2,32=2,38=5/2;
 7//1,2,3,16;
 1/18=20/3(-5);
 2/9=110/2;
 6/7=2,8=2,9=2,10=2,19=2,28=1/1;
 99/9=1/99;
 -------------
 scan rotamers
 -------------
 Symbolic Z-matrix:
 Charge =  1 Multiplicity = 1
 N                     2.75      10.651    11.617 
 C                     1.947     9.526     11.157 
 C                     2.314     8.181     11.793 
 O                     2.933     8.098     12.849 
 C                     1.807     11.689    12.273 
 C                     1.234     12.595    11.161 
 C                     3.798     10.746    10.895 
 N                    -0.727     13.906    9.3 
 O                     4.68      9.973     10.272 
 C                     4.002     12.25     11.15 
 C                    -0.243     13.104    10.313 
 H                     2.369     12.324    12.993 
 H                     0.961     11.239    12.838 
 H                     1.844     12.191    10.143 
 H                    -0.741     12.458    11.11 
 H                     0.85      9.677     11.253 
 H                     2.196     9.514     10.082 
 H                    -0.018     14.606    8.88 
 H                    -1.683     14.181    9.548 
 H                     1.702     13.804    11.204 
 H                    -0.956     13.698    8.597 
 H                     4.902     12.561    10.708 
 H                     4.042     12.429    12.184 
 H                     3.204     12.789    10.733 
 H                    -0.791     13.559    11.263 
 N                     2.        7.078     11.076 
 C                     2.503     5.808     11.594 
 C                     0.952     7.026     10.064 
 H                     2.716     5.134     10.764 
 H                     1.753     5.358     12.245 
 H                     3.418     5.984     12.162 
 H                     0.562     6.01      9.996 
 H                     1.362     7.324     9.099 
 H                     0.147     7.706     10.342 
 

 GradGradGradGradGradGradGradGradGradGradGradGradGradGradGradGradGradGrad
 Berny optimization.
 Initialization pass.
                           ----------------------------
                           !    Initial Parameters    !
                           ! (Angstroms and Degrees)  !
 --------------------------                            --------------------------
 ! Name  Definition              Value          Derivative Info.                !
 --------------------------------------------------------------------------------
 ! R1    R(1,2)                  1.4567         estimate D2E/DX2                !
 ! R2    R(1,5)                  1.5482         estimate D2E/DX2                !
 ! R3    R(1,7)                  1.2762         estimate D2E/DX2                !
 ! R4    R(2,3)                  1.5324         estimate D2E/DX2                !
 ! R5    R(2,16)                 1.1115         estimate D2E/DX2                !
 ! R6    R(2,17)                 1.1035         estimate D2E/DX2                !
 ! R7    R(3,4)                  1.2269         estimate D2E/DX2                !
 ! R8    R(3,26)                 1.3525         estimate D2E/DX2                !
 ! R9    R(5,6)                  1.5446         estimate D2E/DX2                !
 ! R10   R(5,12)                 1.1124         estimate D2E/DX2                !
 ! R11   R(5,13)                 1.1124         estimate D2E/DX2                !
 ! R12   R(6,11)                 1.7776         estimate D2E/DX2                !
 ! R13   R(6,14)                 1.2537         estimate D2E/DX2                !
 ! R14   R(6,20)                 1.2971         estimate D2E/DX2                !
 ! R15   R(7,9)                  1.328          estimate D2E/DX2                !
 ! R16   R(7,10)                 1.539          estimate D2E/DX2                !
 ! R17   R(8,11)                 1.3797         estimate D2E/DX2                !
 ! R18   R(8,18)                 1.0812         estimate D2E/DX2                !
 ! R19   R(8,19)                 1.0252         estimate D2E/DX2                !
 ! R20   R(8,21)                 0.7681         estimate D2E/DX2                !
 ! R21   R(10,22)                1.0498         estimate D2E/DX2                !
 ! R22   R(10,23)                1.0501         estimate D2E/DX2                !
 ! R23   R(10,24)                1.0494         estimate D2E/DX2                !
 ! R24   R(11,15)                1.1404         estimate D2E/DX2                !
 ! R25   R(11,25)                1.1874         estimate D2E/DX2                !
 ! R26   R(26,27)                1.4609         estimate D2E/DX2                !
 ! R27   R(26,28)                1.4578         estimate D2E/DX2                !
 ! R28   R(27,29)                1.0902         estimate D2E/DX2                !
 ! R29   R(27,30)                1.0903         estimate D2E/DX2                !
 ! R30   R(27,31)                1.0912         estimate D2E/DX2                !
 ! R31   R(28,32)                1.0904         estimate D2E/DX2                !
 ! R32   R(28,33)                1.09           estimate D2E/DX2                !
 ! R33   R(28,34)                1.0898         estimate D2E/DX2                !
 ! A1    A(2,1,5)              108.4103         estimate D2E/DX2                !
 ! A2    A(2,1,7)              109.3609         estimate D2E/DX2                !
 ! A3    A(5,1,7)              133.6291         estimate D2E/DX2                !
 ! A4    A(1,2,3)              114.5045         estimate D2E/DX2                !
 ! A5    A(1,2,16)             114.3216         estimate D2E/DX2                !
 ! A6    A(1,2,17)             101.048          estimate D2E/DX2                !
 ! A7    A(3,2,16)             108.6487         estimate D2E/DX2                !
 ! A8    A(3,2,17)             109.9211         estimate D2E/DX2                !
 ! A9    A(16,2,17)            107.9575         estimate D2E/DX2                !
 ! A10   A(2,3,4)              122.5104         estimate D2E/DX2                !
 ! A11   A(2,3,26)             116.1147         estimate D2E/DX2                !
 ! A12   A(4,3,26)             121.2155         estimate D2E/DX2                !
 ! A13   A(1,5,6)              108.3107         estimate D2E/DX2                !
 ! A14   A(1,5,12)             110.4407         estimate D2E/DX2                !
 ! A15   A(1,5,13)             114.0296         estimate D2E/DX2                !
 ! A16   A(6,5,12)             108.576          estimate D2E/DX2                !
 ! A17   A(6,5,13)             108.7123         estimate D2E/DX2                !
 ! A18   A(12,5,13)            106.6423         estimate D2E/DX2                !
 ! A19   A(5,6,11)             145.0514         estimate D2E/DX2                !
 ! A20   A(5,6,14)             102.4199         estimate D2E/DX2                !
 ! A21   A(5,6,20)             112.8925         estimate D2E/DX2                !
 ! A22   A(11,6,14)             96.2691         estimate D2E/DX2                !
 ! A23   A(11,6,20)             92.7922         estimate D2E/DX2                !
 ! A24   A(14,6,20)             98.727          estimate D2E/DX2                !
 ! A25   A(1,7,9)              140.129          estimate D2E/DX2                !
 ! A26   A(1,7,10)              95.0404         estimate D2E/DX2                !
 ! A27   A(9,7,10)             123.9534         estimate D2E/DX2                !
 ! A28   A(11,8,18)            115.5623         estimate D2E/DX2                !
 ! A29   A(11,8,19)            107.7839         estimate D2E/DX2                !
 ! A30   A(11,8,21)            128.257          estimate D2E/DX2                !
 ! A31   A(18,8,19)            122.1248         estimate D2E/DX2                !
 ! A32   A(18,8,21)             90.8763         estimate D2E/DX2                !
 ! A33   A(19,8,21)             90.9183         estimate D2E/DX2                !
 ! A34   A(7,10,22)            109.4739         estimate D2E/DX2                !
 ! A35   A(7,10,23)            109.558          estimate D2E/DX2                !
 ! A36   A(7,10,24)            109.5908         estimate D2E/DX2                !
 ! A37   A(22,10,23)           109.3543         estimate D2E/DX2                !
 ! A38   A(22,10,24)           109.4183         estimate D2E/DX2                !
 ! A39   A(23,10,24)           109.4316         estimate D2E/DX2                !
 ! A40   A(6,11,8)             143.9193         estimate D2E/DX2                !
 ! A41   A(6,11,15)             82.3709         estimate D2E/DX2                !
 ! A42   A(6,11,25)             96.4034         estimate D2E/DX2                !
 ! A43   A(8,11,15)            133.567          estimate D2E/DX2                !
 ! A44   A(8,11,25)            101.6999         estimate D2E/DX2                !
 ! A45   A(15,11,25)            57.0685         estimate D2E/DX2                !
 ! A46   A(3,26,27)            116.1708         estimate D2E/DX2                !
 ! A47   A(3,26,28)            124.333          estimate D2E/DX2                !
 ! A48   A(27,26,28)           117.5588         estimate D2E/DX2                !
 ! A49   A(26,27,29)           109.5584         estimate D2E/DX2                !
 ! A50   A(26,27,30)           109.491          estimate D2E/DX2                !
 ! A51   A(26,27,31)           109.4539         estimate D2E/DX2                !
 ! A52   A(29,27,30)           109.4996         estimate D2E/DX2                !
 ! A53   A(29,27,31)           109.4001         estimate D2E/DX2                !
 ! A54   A(30,27,31)           109.4241         estimate D2E/DX2                !
 ! A55   A(26,28,32)           109.4906         estimate D2E/DX2                !
 ! A56   A(26,28,33)           109.5375         estimate D2E/DX2                !
 ! A57   A(26,28,34)           109.3706         estimate D2E/DX2                !
 ! A58   A(32,28,33)           109.5154         estimate D2E/DX2                !
 ! A59   A(32,28,34)           109.4569         estimate D2E/DX2                !
 ! A60   A(33,28,34)           109.4562         estimate D2E/DX2                !
 ! D1    D(5,1,2,3)           -119.679          estimate D2E/DX2                !
 ! D2    D(5,1,2,16)             6.5962         estimate D2E/DX2                !
 ! D3    D(5,1,2,17)           122.2528         estimate D2E/DX2                !
 ! D4    D(7,1,2,3)             87.7283         estimate D2E/DX2                !
 ! D5    D(7,1,2,16)          -145.9966         estimate D2E/DX2                !
 ! D6    D(7,1,2,17)           -30.34           estimate D2E/DX2                !
 ! D7    D(2,1,5,6)            -85.0286         estimate D2E/DX2                !
 ! D8    D(2,1,5,12)           156.1921         estimate D2E/DX2                !
 ! D9    D(2,1,5,13)            36.1384         estimate D2E/DX2                !
 ! D10   D(7,1,5,6)             58.1027         estimate D2E/DX2                !
 ! D11   D(7,1,5,12)           -60.6766         estimate D2E/DX2                !
 ! D12   D(7,1,5,13)           179.2697         estimate D2E/DX2                !
 ! D13   D(2,1,7,9)            -36.5291         estimate D2E/DX2                !
 ! D14   D(2,1,7,10)           154.8862         estimate D2E/DX2                !
 ! D15   D(5,1,7,9)           -179.4154         estimate D2E/DX2                !
 ! D16   D(5,1,7,10)            11.9999         estimate D2E/DX2                !
 ! D17   D(1,2,3,4)             20.1021         estimate D2E/DX2                !
 ! D18   D(1,2,3,26)          -155.3563         estimate D2E/DX2                !
 ! D19   D(16,2,3,4)          -109.0618         estimate D2E/DX2                !
 ! D20   D(16,2,3,26)           75.4798         estimate D2E/DX2                !
 ! D21   D(17,2,3,4)           133.0068         estimate D2E/DX2                !
 ! D22   D(17,2,3,26)          -42.4516         estimate D2E/DX2                !
 ! D23   D(2,3,26,27)          172.2529         estimate D2E/DX2                !
 ! D24   D(2,3,26,28)          -24.0245         estimate D2E/DX2                !
 ! D25   D(4,3,26,27)           -3.269          estimate D2E/DX2                !
 ! D26   D(4,3,26,28)          160.4537         estimate D2E/DX2                !
 ! D27   D(1,5,6,11)           116.0027         estimate D2E/DX2                !
 ! D28   D(1,5,6,14)            -4.6821         estimate D2E/DX2                !
 ! D29   D(1,5,6,20)          -109.8495         estimate D2E/DX2                !
 ! D30   D(12,5,6,11)         -124.0439         estimate D2E/DX2                !
 ! D31   D(12,5,6,14)          115.2713         estimate D2E/DX2                !
 ! D32   D(12,5,6,20)           10.104          estimate D2E/DX2                !
 ! D33   D(13,5,6,11)           -8.3964         estimate D2E/DX2                !
 ! D34   D(13,5,6,14)         -129.0812         estimate D2E/DX2                !
 ! D35   D(13,5,6,20)          125.7514         estimate D2E/DX2                !
 ! D36   D(5,6,11,8)          -178.4451         estimate D2E/DX2                !
 ! D37   D(5,6,11,15)            6.0604         estimate D2E/DX2                !
 ! D38   D(5,6,11,25)           61.5215         estimate D2E/DX2                !
 ! D39   D(14,6,11,8)          -56.1079         estimate D2E/DX2                !
 ! D40   D(14,6,11,15)         128.3976         estimate D2E/DX2                !
 ! D41   D(14,6,11,25)        -176.1413         estimate D2E/DX2                !
 ! D42   D(20,6,11,8)           42.9933         estimate D2E/DX2                !
 ! D43   D(20,6,11,15)        -132.5012         estimate D2E/DX2                !
 ! D44   D(20,6,11,25)         -77.0401         estimate D2E/DX2                !
 ! D45   D(1,7,10,22)          174.6048         estimate D2E/DX2                !
 ! D46   D(1,7,10,23)           54.6932         estimate D2E/DX2                !
 ! D47   D(1,7,10,24)          -65.3851         estimate D2E/DX2                !
 ! D48   D(9,7,10,22)            3.4032         estimate D2E/DX2                !
 ! D49   D(9,7,10,23)         -116.5084         estimate D2E/DX2                !
 ! D50   D(9,7,10,24)          123.4133         estimate D2E/DX2                !
 ! D51   D(18,8,11,6)          -10.1957         estimate D2E/DX2                !
 ! D52   D(18,8,11,15)         163.6355         estimate D2E/DX2                !
 ! D53   D(18,8,11,25)         108.3319         estimate D2E/DX2                !
 ! D54   D(19,8,11,6)         -150.7715         estimate D2E/DX2                !
 ! D55   D(19,8,11,15)          23.0597         estimate D2E/DX2                !
 ! D56   D(19,8,11,25)         -32.2439         estimate D2E/DX2                !
 ! D57   D(21,8,11,6)          103.3046         estimate D2E/DX2                !
 ! D58   D(21,8,11,15)         -82.8642         estimate D2E/DX2                !
 ! D59   D(21,8,11,25)        -138.1678         estimate D2E/DX2                !
 ! D60   D(3,26,27,29)        -147.6914         estimate D2E/DX2                !
 ! D61   D(3,26,27,30)          92.2081         estimate D2E/DX2                !
 ! D62   D(3,26,27,31)         -27.7357         estimate D2E/DX2                !
 ! D63   D(28,26,27,29)         47.4425         estimate D2E/DX2                !
 ! D64   D(28,26,27,30)        -72.6579         estimate D2E/DX2                !
 ! D65   D(28,26,27,31)        167.3982         estimate D2E/DX2                !
 ! D66   D(3,26,28,32)        -152.071          estimate D2E/DX2                !
 ! D67   D(3,26,28,33)          87.8222         estimate D2E/DX2                !
 ! D68   D(3,26,28,34)         -32.1383         estimate D2E/DX2                !
 ! D69   D(27,26,28,32)         11.4449         estimate D2E/DX2                !
 ! D70   D(27,26,28,33)       -108.6618         estimate D2E/DX2                !
 ! D71   D(27,26,28,34)        131.3776         estimate D2E/DX2                !
 --------------------------------------------------------------------------------
 Trust Radius=3.00D-01 FncErr=1.00D-07 GrdErr=1.00D-07
 Number of steps in this run= 174 maximum allowed number of steps= 204.
 GradGradGradGradGradGradGradGradGradGradGradGradGradGradGradGradGradGrad

                          Input orientation:                          
 ---------------------------------------------------------------------
 Center     Atomic     Atomic              Coordinates (Angstroms)
 Number     Number      Type              X           Y           Z
 ---------------------------------------------------------------------
    1          7             0        2.750000   10.651000   11.617000
    2          6             0        1.947000    9.526000   11.157000
    3          6             0        2.314000    8.181000   11.793000
    4          8             0        2.933000    8.098000   12.849000
    5          6             0        1.807000   11.689000   12.273000
    6          6             0        1.234000   12.595000   11.161000
    7          6             0        3.798000   10.746000   10.895000
    8          7             0       -0.727000   13.906000    9.300000
    9          8             0        4.680000    9.973000   10.272000
   10          6             0        4.002000   12.250000   11.150000
   11          6             0       -0.243000   13.104000   10.313000
   12          1             0        2.369000   12.324000   12.993000
   13          1             0        0.961000   11.239000   12.838000
   14          1             0        1.844000   12.191000   10.143000
   15          1             0       -0.741000   12.458000   11.110000
   16          1             0        0.850000    9.677000   11.253000
   17          1             0        2.196000    9.514000   10.082000
   18          1             0       -0.018000   14.606000    8.880000
   19          1             0       -1.683000   14.181000    9.548000
   20          1             0        1.702000   13.804000   11.204000
   21          1             0       -0.956000   13.698000    8.597000
   22          1             0        4.902000   12.561000   10.708000
   23          1             0        4.042000   12.429000   12.184000
   24          1             0        3.204000   12.789000   10.733000
   25          1             0       -0.791000   13.559000   11.263000
   26          7             0        2.000000    7.078000   11.076000
   27          6             0        2.503000    5.808000   11.594000
   28          6             0        0.952000    7.026000   10.064000
   29          1             0        2.716000    5.134000   10.764000
   30          1             0        1.753000    5.358000   12.245000
   31          1             0        3.418000    5.984000   12.162000
   32          1             0        0.562000    6.010000    9.996000
   33          1             0        1.362000    7.324000    9.099000
   34          1             0        0.147000    7.706000   10.342000
 ---------------------------------------------------------------------
                    Distance matrix (angstroms):
                    1          2          3          4          5
     1  N    0.000000
     2  C    1.456720   0.000000
     3  C    2.514353   1.532387   0.000000
     4  O    2.840620   2.423684   1.226860   0.000000
     5  C    1.548234   2.437955   3.576802   3.807221   0.000000
     6  C    2.507056   3.150737   4.587943   5.094993   1.544574
     7  C    1.276171   2.232318   3.096431   3.402682   2.598502
     8  N    5.296512   5.457392   6.945384   7.728122   4.491656
     9  O    2.448185   2.907288   3.335065   3.634359   3.899075
    10  C    2.083841   3.412221   4.451916   4.611775   2.528611
    11  C    4.083586   4.279079   5.741479   6.448124   3.169594
    12  H    2.199424   3.373097   4.313638   4.265901   1.112416
    13  H    2.244350   2.594673   3.503427   3.708745   1.112403
    14  H    2.316271   2.853249   4.361594   5.026033   2.188669
    15  H    3.963506   3.977961   5.300212   5.960872   2.904520
    16  H    2.165911   1.111497   2.161692   3.062572   2.450386
    17  H    1.988947   1.103526   2.172173   3.194451   3.111660
    18  H    5.549326   5.903588   7.429968   8.174070   4.832387
    19  H    6.032674   6.118399   7.550896   8.319071   5.080924
    20  H    3.348176   4.285268   5.686791   6.064637   2.372132
    21  H    5.669131   5.690922   7.165515   8.035162   5.018289
    22  H    3.017530   4.259677   5.201862   5.327214   3.576120
    23  H    2.269810   3.724401   4.602648   4.519919   2.356002
    24  H    2.357672   3.522356   4.811379   5.153288   2.352277
    25  H    4.595700   4.875753   6.232560   6.797506   3.356576
    26  N    3.690733   2.449913   1.352514   2.248203   4.767744
    27  C    4.849349   3.784657   2.388818   2.646512   5.960840
    28  C    4.334194   2.904251   2.485661   3.581867   5.230131
    29  H    5.582657   4.476100   3.241088   3.630373   6.787591
    30  H    5.422568   4.312030   2.913478   3.043816   6.331292
    31  H    4.745960   3.964799   2.486320   2.275124   5.929137
    32  H    5.380880   3.953277   3.318426   4.256876   6.243861
    33  H    4.397249   3.070243   2.983017   4.138794   5.415305
    34  H    4.132101   2.686378   2.650833   3.768356   4.727436
                    6          7          8          9         10
     6  C    0.000000
     7  C    3.172326   0.000000
     8  N    3.004590   5.745020   0.000000
     9  O    4.420421   1.327999   6.756399   0.000000
    10  C    2.789439   1.539044   5.341187   2.532844   0.000000
    11  C    1.777558   4.714718   1.379721   5.834447   4.410205
    12  H    2.172070   2.988934   5.072099   4.274548   2.463496
    13  H    2.173843   3.473740   4.741274   4.692342   3.622036
    14  H    1.253651   2.543943   3.203422   3.602646   2.382120
    15  H    1.980403   4.855892   2.317973   6.022019   4.747727
    16  H    2.944596   3.156205   4.917884   3.964704   4.070140
    17  H    3.403270   2.178347   5.333396   2.533187   3.447892
    18  H    3.288554   5.789791   1.081240   6.743408   5.183053
    19  H    3.691349   6.607193   1.025215   7.662846   6.214048
    20  H    1.297133   3.720223   3.087987   4.941019   2.776298
    21  H    3.547789   6.049432   0.768059   6.960298   5.761621
    22  H    3.696023   2.132606   5.956268   2.633842   1.049802
    23  H    2.993150   2.133904   5.765618   3.177220   1.050141
    24  H    2.025270   2.133759   4.330582   3.212624   1.049387
    25  H    2.245067   5.395119   1.994461   6.616141   4.969819
    26  N    5.570572   4.088984   7.563881   4.026145   5.546446
    27  C    6.918180   5.152618   9.015151   4.882032   6.628989
    28  C    5.683018   4.756961   7.123001   4.756686   6.145899
    29  H    7.617116   5.716855   9.536537   5.245501   7.241564
    30  H    7.336115   5.919043   9.375059   5.810188   7.331895
    31  H    7.034002   4.942300   9.387766   4.590955   6.374006
    32  H    6.720940   5.805996   8.030738   5.721841   7.218235
    33  H    5.661419   4.568347   6.908476   4.404799   5.953291
    34  H    5.074904   4.783013   6.347412   5.068755   6.013470
                   11         12         13         14         15
    11  C    0.000000
    12  H    3.822740   0.000000
    13  H    3.362063   1.784297   0.000000
    14  H    2.284303   2.901002   2.991491   0.000000
    15  H    1.140407   3.638096   2.714544   2.772833   0.000000
    16  H    3.717873   3.513057   2.228091   2.922385   3.207131
    17  H    4.346284   4.049685   3.477986   2.700732   4.283677
    18  H    2.088090   5.274662   5.287806   3.300672   3.179549
    19  H    1.954163   5.633398   5.144920   4.093147   2.509171
    20  H    2.250979   2.415742   3.130218   1.935886   2.790842
    21  H    1.950862   5.680521   5.263806   3.535699   2.810515
    22  H    5.188632   3.419574   4.670767   3.131691   5.658238
    23  H    4.724139   1.861299   3.366954   3.008908   4.902184
    24  H    3.486751   2.453783   3.444499   1.598532   3.976772
    25  H    1.187362   3.808376   3.306438   3.173176   1.112704
    26  N    6.475021   5.597461   4.636603   5.199769   6.038099
    27  C    7.900196   6.665839   5.781095   6.578934   7.414870
    28  C    6.199364   6.217374   5.044257   5.242054   5.785066
    29  H    8.513518   7.535579   6.682255   7.137736   8.106266
    30  H    8.229043   7.033073   5.963646   7.149586   7.610405
    31  H    8.216819   6.479704   5.840278   6.714215   7.766380
    32  H    7.146562   7.218993   5.964780   6.314261   6.671994
    33  H    6.120312   6.416953   5.428457   5.000995   5.901244
    34  H    5.412148   5.769836   4.401670   4.799441   4.894882
                   16         17         18         19         20
    16  H    0.000000
    17  H    1.791515   0.000000
    18  H    5.538916   5.681115   0.000000
    19  H    5.441427   6.092018   1.843658   0.000000
    20  H    4.214313   4.461728   3.000430   3.787174   0.000000
    21  H    5.146301   5.444831   1.335813   1.290821   3.724601
    22  H    5.003317   4.122926   5.632940   6.879842   3.468583
    23  H    4.316147   4.040216   5.669157   6.541684   2.885589
    24  H    3.936529   3.487906   4.137195   5.217725   1.872984
    25  H    4.214606   5.165167   2.715221   2.030708   2.505704
    26  N    2.847566   2.638285   8.097254   8.145666   6.733815
    27  C    4.221120   4.014328   9.545996   9.582058   8.045478
    28  C    2.907220   2.781727   7.732991   7.642219   6.913999
    29  H    4.935578   4.463174  10.037081  10.133019   8.740177
    30  H    4.522525   4.706076   9.999258   9.845061   8.510065
    31  H    4.589025   4.275580   9.844618  10.002200   8.063177
    32  H    3.887143   3.867217   8.687524   8.485633   7.969021
    33  H    3.230862   2.541249   7.414842   7.516121   6.821805
    34  H    2.282317   2.744971   7.055117   6.775320   6.351903
                   21         22         23         24         25
    21  H    0.000000
    22  H    6.329712   0.000000
    23  H    6.281475   1.713359   0.000000
    24  H    4.763862   1.713421   1.713839   0.000000
    25  H    2.674715   5.806400   5.048072   4.102904   0.000000
    26  N    7.662100   6.214525   5.833578   5.846605   7.058896
    27  C    9.121337   7.221025   6.823068   7.068740   8.428404
    28  C    7.092823   6.830334   6.575326   6.223442   6.867004
    29  H    9.566691   7.742226   7.549285   7.670602   9.139402
    30  H    9.497483   8.010105   7.432515   7.720836   8.642492
    31  H    9.557557   6.897340   6.475175   6.956713   8.712319
    32  H    7.960331   7.890383   7.622421   7.312877   7.773243
    33  H    6.800956   6.522779   6.539163   5.994093   6.942156
    34  H    6.337641   6.805513   6.393021   5.944327   5.998808
                   26         27         28         29         30
    26  N    0.000000
    27  C    1.460901   0.000000
    28  C    1.457790   2.496002   0.000000
    29  H    2.095026   1.090204   2.679806   0.000000
    30  H    2.094271   1.090322   2.860172   1.780704   0.000000
    31  H    2.094506   1.091249   3.401253   1.780367   1.780727
    32  H    2.091619   2.522279   1.090404   2.448860   2.627087
    33  H    2.091910   3.134511   1.090013   3.066210   3.730329
    34  H    2.089677   3.274239   1.089821   3.659649   3.422535
                   31         32         33         34
    31  H    0.000000
    32  H    3.584546   0.000000
    33  H    3.924883   1.780788   0.000000
    34  H    4.120331   1.779988   1.779662   0.000000
 Stoichiometry    C9H20N3O2(1+)
 Framework group  C1[X(C9H20N3O2)]
 Deg. of freedom    96
 Full point group                 C1
 Largest Abelian subgroup         C1      NOp   1
 Largest concise Abelian subgroup C1      NOp   1
                         Standard orientation:                         
 ---------------------------------------------------------------------
 Center     Atomic     Atomic              Coordinates (Angstroms)
 Number     Number      Type              X           Y           Z
 ---------------------------------------------------------------------
    1          7             0       -0.213170    0.955655    0.357257
    2          6             0        0.558735   -0.248333    0.080471
    3          6             0        2.035269   -0.162863    0.481410
    4          8             0        2.451181    0.655394    1.295448
    5          6             0       -1.355256    0.589921    1.336495
    6          6             0       -2.547417    0.054392    0.513287
    7          6             0       -0.126441    1.751597   -0.636507
    8          7             0       -4.625450   -1.820642   -0.579229
    9          8             0        0.752722    2.152607   -1.547465
   10          6             0       -1.455678    2.472125   -0.349061
   11          6             0       -3.572070   -1.360234    0.183689
   12          1             0       -1.688546    1.490337    1.898311
   13          1             0       -1.074176   -0.173209    2.095486
   14          1             0       -2.155404    0.217300   -0.666301
   15          1             0       -2.972396   -1.805177    1.045632
   16          1             0        0.126925   -1.177896    0.510447
   17          1             0        0.470232   -0.308440   -1.017857
   18          1             0       -5.158687   -1.066732   -1.141686
   19          1             0       -5.111898   -2.542824   -0.038039
   20          1             0       -3.557195    0.868460    0.499300
   21          1             0       -4.602077   -2.279911   -1.194403
   22          1             0       -1.570720    3.273883   -1.016919
   23          1             0       -1.451908    2.837170    0.635584
   24          1             0       -2.253081    1.800648   -0.469401
   25          1             0       -4.005942   -1.468640    1.283613
   26          7             0        2.881353   -0.981306   -0.184614
   27          6             0        4.305913   -0.779505    0.068640
   28          6             0        2.481546   -2.221624   -0.838004
   29          1             0        4.873483   -1.013334   -0.832322
   30          1             0        4.627079   -1.432266    0.880771
   31          1             0        4.481617    0.260650    0.347980
   32          1             0        3.326034   -2.911143   -0.857558
   33          1             0        2.161021   -2.009427   -1.857987
   34          1             0        1.657685   -2.672259   -0.284931
 ---------------------------------------------------------------------
 Rotational constants (GHZ):      0.8972567      0.3363774      0.2822988
 Standard basis: 6-31G(d) (6D, 7F)
 There are   250 symmetry adapted basis functions of A   symmetry.
 Integral buffers will be    131072 words long.
 Raffenetti 1 integral format.
 Two-electron integral symmetry is turned on.
   250 basis functions,   472 primitive gaussians,   250 cartesian basis functions
    55 alpha electrons       55 beta electrons
       nuclear repulsion energy       967.0990995500 Hartrees.
 NAtoms=   34 NActive=   34 NUniq=   34 SFac= 7.50D-01 NAtFMM=   80 NAOKFM=F Big=F
 One-electron integrals computed using PRISM.
 NBasis=   250 RedAO= T  NBF=   250
 NBsUse=   250 1.00D-06 NBFU=   250
 Harris functional with IExCor=  205 diagonalized for initial guess.
 ExpMin= 1.61D-01 ExpMax= 5.48D+03 ExpMxC= 8.25D+02 IAcc=1 IRadAn=         1 AccDes= 1.00D-06
 HarFok:  IExCor= 205 AccDes= 1.00D-06 IRadAn=         1 IDoV=1
 ScaDFX=  1.000000  1.000000  1.000000  1.000000
 Initial guess orbital symmetries:
       Occupied  (A) (A) (A) (A) (A) (A) (A) (A) (A) (A) (A) (A)
                 (A) (A) (A) (A) (A) (A) (A) (A) (A) (A) (A) (A)
                 (A) (A) (A) (A) (A) (A) (A) (A) (A) (A) (A) (A)
                 (A) (A) (A) (A) (A) (A) (A) (A) (A) (A) (A) (A)
                 (A) (A) (A) (A) (A) (A) (A)
       Virtual   (A) (A) (A) (A) (A) (A) (A) (A) (A) (A) (A) (A)
                 (A) (A) (A) (A) (A) (A) (A) (A) (A) (A) (A) (A)
                 (A) (A) (A) (A) (A) (A) (A) (A) (A) (A) (A) (A)
                 (A) (A) (A) (A) (A) (A) (A) (A) (A) (A) (A) (A)
                 (A) (A) (A) (A) (A) (A) (A) (A) (A) (A) (A) (A)
                 (A) (A) (A) (A) (A) (A) (A) (A) (A) (A) (A) (A)
                 (A) (A) (A) (A) (A) (A) (A) (A) (A) (A) (A) (A)
                 (A) (A) (A) (A) (A) (A) (A) (A) (A) (A) (A) (A)
                 (A) (A) (A) (A) (A) (A) (A) (A) (A) (A) (A) (A)
                 (A) (A) (A) (A) (A) (A) (A) (A) (A) (A) (A) (A)
                 (A) (A) (A) (A) (A) (A) (A) (A) (A) (A) (A) (A)
                 (A) (A) (A) (A) (A) (A) (A) (A) (A) (A) (A) (A)
                 (A) (A) (A) (A) (A) (A) (A) (A) (A) (A) (A) (A)
                 (A) (A) (A) (A) (A) (A) (A) (A) (A) (A) (A) (A)
                 (A) (A) (A) (A) (A) (A) (A) (A) (A) (A) (A) (A)
                 (A) (A) (A) (A) (A) (A) (A) (A) (A) (A) (A) (A)
                 (A) (A) (A)
 The electronic state of the initial guess is 1-A.
 Requested convergence on RMS density matrix=1.00D-08 within 128 cycles.
 Requested convergence on MAX density matrix=1.00D-06.
 Requested convergence on             energy=1.00D-06.
 No special actions if energy rises.
 Integral accuracy reduced to 1.0D-05 until final iterations.
 Initial convergence to 1.0D-05 achieved.  Increase integral accuracy.
 SCF Done:  E(RHF) =  -664.745114973     A.U. after   16 cycles
             Convg  =    0.7298D-08             -V/T =  2.0014
             S**2   =   0.0000

 **********************************************************************

            Population analysis using the SCF density.

 **********************************************************************

 Orbital symmetries:
       Occupied  (A) (A) (A) (A) (A) (A) (A) (A) (A) (A) (A) (A)
                 (A) (A) (A) (A) (A) (A) (A) (A) (A) (A) (A) (A)
                 (A) (A) (A) (A) (A) (A) (A) (A) (A) (A) (A) (A)
                 (A) (A) (A) (A) (A) (A) (A) (A) (A) (A) (A) (A)
                 (A) (A) (A) (A) (A) (A) (A)
       Virtual   (A) (A) (A) (A) (A) (A) (A) (A) (A) (A) (A) (A)
                 (A) (A) (A) (A) (A) (A) (A) (A) (A) (A) (A) (A)
                 (A) (A) (A) (A) (A) (A) (A) (A) (A) (A) (A) (A)
                 (A) (A) (A) (A) (A) (A) (A) (A) (A) (A) (A) (A)
                 (A) (A) (A) (A) (A) (A) (A) (A) (A) (A) (A) (A)
                 (A) (A) (A) (A) (A) (A) (A) (A) (A) (A) (A) (A)
                 (A) (A) (A) (A) (A) (A) (A) (A) (A) (A) (A) (A)
                 (A) (A) (A) (A) (A) (A) (A) (A) (A) (A) (A) (A)
                 (A) (A) (A) (A) (A) (A) (A) (A) (A) (A) (A) (A)
                 (A) (A) (A) (A) (A) (A) (A) (A) (A) (A) (A) (A)
                 (A) (A) (A) (A) (A) (A) (A) (A) (A) (A) (A) (A)
                 (A) (A) (A) (A) (A) (A) (A) (A) (A) (A) (A) (A)
                 (A) (A) (A) (A) (A) (A) (A) (A) (A) (A) (A) (A)
                 (A) (A) (A) (A) (A) (A) (A) (A) (A) (A) (A) (A)
                 (A) (A) (A) (A) (A) (A) (A) (A) (A) (A) (A) (A)
                 (A) (A) (A) (A) (A) (A) (A) (A) (A) (A) (A) (A)
                 (A) (A) (A)
 The electronic state is 1-A.
 Alpha  occ. eigenvalues --  -20.62417 -20.59709 -15.93117 -15.72853 -15.66270
 Alpha  occ. eigenvalues --  -11.50177 -11.47940 -11.46703 -11.45525 -11.42983
 Alpha  occ. eigenvalues --  -11.38528 -11.35233 -11.31658 -11.30094  -1.62399
 Alpha  occ. eigenvalues --   -1.46293  -1.44340  -1.35961  -1.31799  -1.24499
 Alpha  occ. eigenvalues --   -1.17887  -1.14717  -1.06550  -1.04988  -1.03733
 Alpha  occ. eigenvalues --   -1.03476  -0.99282  -0.97203  -0.93934  -0.87850
 Alpha  occ. eigenvalues --   -0.82434  -0.80552  -0.78591  -0.77968  -0.74785
 Alpha  occ. eigenvalues --   -0.73235  -0.71993  -0.71365  -0.70887  -0.68964
 Alpha  occ. eigenvalues --   -0.67098  -0.65977  -0.64599  -0.64343  -0.63215
 Alpha  occ. eigenvalues --   -0.61815  -0.59983  -0.59532  -0.59121  -0.57399
 Alpha  occ. eigenvalues --   -0.55389  -0.50416  -0.49722  -0.48244  -0.44029
 Alpha virt. eigenvalues --   -0.07494  -0.02707  -0.00688   0.04102   0.05503
 Alpha virt. eigenvalues --    0.05894   0.07052   0.08521   0.10053   0.11782
 Alpha virt. eigenvalues --    0.13393   0.14091   0.16640   0.17208   0.17670
 Alpha virt. eigenvalues --    0.20727   0.21599   0.23054   0.24272   0.24600
 Alpha virt. eigenvalues --    0.24925   0.25977   0.26459   0.27929   0.29500
 Alpha virt. eigenvalues --    0.30713   0.31403   0.32561   0.33831   0.34233
 Alpha virt. eigenvalues --    0.37531   0.40241   0.44946   0.48824   0.49269
 Alpha virt. eigenvalues --    0.51790   0.55806   0.59420   0.60463   0.61560
 Alpha virt. eigenvalues --    0.62242   0.63751   0.65833   0.66733   0.67343
 Alpha virt. eigenvalues --    0.69322   0.69531   0.70885   0.72018   0.73895
 Alpha virt. eigenvalues --    0.76301   0.76815   0.78694   0.80244   0.80950
 Alpha virt. eigenvalues --    0.81493   0.82000   0.82514   0.85637   0.85830
 Alpha virt. eigenvalues --    0.87342   0.88462   0.89421   0.89814   0.90597
 Alpha virt. eigenvalues --    0.91754   0.94116   0.94865   0.95264   0.97695
 Alpha virt. eigenvalues --    0.98236   1.00193   1.00930   1.02001   1.03049
 Alpha virt. eigenvalues --    1.03882   1.05172   1.06538   1.07047   1.08198
 Alpha virt. eigenvalues --    1.09218   1.10033   1.10686   1.12240   1.13814
 Alpha virt. eigenvalues --    1.14848   1.15233   1.16224   1.17021   1.17998
 Alpha virt. eigenvalues --    1.20808   1.23395   1.23967   1.24975   1.28079
 Alpha virt. eigenvalues --    1.31635   1.32823   1.34130   1.37326   1.38605
 Alpha virt. eigenvalues --    1.40885   1.43353   1.46529   1.50719   1.52838
 Alpha virt. eigenvalues --    1.53477   1.55827   1.57089   1.62287   1.63153
 Alpha virt. eigenvalues --    1.65916   1.66608   1.71681   1.75658   1.79948
 Alpha virt. eigenvalues --    1.80185   1.83599   1.87026   1.88462   1.90914
 Alpha virt. eigenvalues --    1.92282   1.94764   1.97885   2.00646   2.01763
 Alpha virt. eigenvalues --    2.03627   2.03891   2.05859   2.07760   2.09086
 Alpha virt. eigenvalues --    2.11712   2.12102   2.13650   2.15349   2.15858
 Alpha virt. eigenvalues --    2.17313   2.18505   2.19802   2.21251   2.21938
 Alpha virt. eigenvalues --    2.24273   2.25175   2.26743   2.28003   2.29482
 Alpha virt. eigenvalues --    2.31590   2.35883   2.37199   2.39268   2.39955
 Alpha virt. eigenvalues --    2.43567   2.47587   2.50227   2.51299   2.55306
 Alpha virt. eigenvalues --    2.55614   2.58233   2.60025   2.61067   2.63891
 Alpha virt. eigenvalues --    2.65098   2.68118   2.70565   2.72718   2.75433
 Alpha virt. eigenvalues --    2.81026   2.81951   2.86853   2.88607   2.91808
 Alpha virt. eigenvalues --    2.92615   2.94226   2.95660   3.00099   3.03317
 Alpha virt. eigenvalues --    3.13305   3.23339   3.32024   3.33770   3.37720
 Alpha virt. eigenvalues --    3.48474   3.97148   4.25750   4.31884   4.38395
 Alpha virt. eigenvalues --    4.40404   4.45959   4.54530   4.56394   4.62896
 Alpha virt. eigenvalues --    4.67088   4.69870   4.77701   4.91461   4.97593
          Condensed to atoms (all electrons):
              1          2          3          4          5          6
     1  N    7.402156   0.183332  -0.045319   0.005153   0.289323  -0.063638
     2  C    0.183332   5.297887   0.319834  -0.079812  -0.059080  -0.002104
     3  C   -0.045319   0.319834   4.145303   0.608654   0.002099  -0.000275
     4  O    0.005153  -0.079812   0.608654   8.170416   0.000006   0.000015
     5  C    0.289323  -0.059080   0.002099   0.000006   5.018014   0.214183
     6  C   -0.063638  -0.002104  -0.000275   0.000015   0.214183   5.422916
     7  C    0.210669  -0.051635   0.003035   0.002780  -0.022401  -0.000157
     8  N   -0.000005   0.000002   0.000000   0.000000   0.000333  -0.001724
     9  O   -0.054901  -0.002991   0.002273  -0.000596   0.001144  -0.000063
    10  C   -0.225424   0.013905  -0.000458  -0.000009  -0.042666  -0.035968
    11  C    0.001760  -0.000061   0.000008   0.000000  -0.001989   0.235472
    12  H   -0.036911   0.003656  -0.000070   0.000024   0.408440  -0.040098
    13  H   -0.020781  -0.007410   0.000635   0.000183   0.400293  -0.051534
    14  H   -0.012479  -0.000320  -0.000039   0.000000  -0.046334   0.398785
    15  H   -0.000103  -0.000062   0.000002   0.000000   0.001632  -0.048864
    16  H   -0.033912   0.380149  -0.026646   0.001298  -0.005254  -0.000612
    17  H   -0.065462   0.412951  -0.041666   0.001015   0.001901   0.000895
    18  H    0.000000   0.000000   0.000000   0.000000  -0.000005   0.001791
    19  H    0.000000   0.000000   0.000000   0.000000  -0.000006   0.001154
    20  H    0.003698  -0.000017   0.000004   0.000000  -0.029152   0.388330
    21  H    0.000000   0.000001   0.000000   0.000000  -0.000007  -0.000382
    22  H    0.008791  -0.000297   0.000008   0.000000   0.001228   0.000223
    23  H   -0.003536   0.000587  -0.000018   0.000012  -0.004769  -0.001719
    24  H   -0.009401  -0.000651  -0.000047  -0.000002  -0.010502  -0.020537
    25  H   -0.000063   0.000014   0.000000   0.000000  -0.000279  -0.047602
    26  N    0.001391  -0.116942   0.299774  -0.104690  -0.000022   0.000006
    27  C   -0.000077   0.004299  -0.036456  -0.004483   0.000002   0.000000
    28  C    0.000181  -0.006312  -0.024784   0.002157  -0.000012  -0.000002
    29  H    0.000001   0.000005   0.004090   0.000665   0.000000   0.000000
    30  H    0.000000  -0.000158  -0.001998   0.000819   0.000000   0.000000
    31  H   -0.000004   0.000272  -0.005603   0.005760   0.000000   0.000000
    32  H   -0.000001   0.000029   0.000722  -0.000044   0.000000   0.000000
    33  H    0.000002  -0.000650   0.000987  -0.000048   0.000000   0.000000
    34  H    0.000036  -0.001916  -0.003440   0.000168  -0.000008   0.000003
              7          8          9         10         11         12
     1  N    0.210669  -0.000005  -0.054901  -0.225424   0.001760  -0.036911
     2  C   -0.051635   0.000002  -0.002991   0.013905  -0.000061   0.003656
     3  C    0.003035   0.000000   0.002273  -0.000458   0.000008  -0.000070
     4  O    0.002780   0.000000  -0.000596  -0.000009   0.000000   0.000024
     5  C   -0.022401   0.000333   0.001144  -0.042666  -0.001989   0.408440
     6  C   -0.000157  -0.001724  -0.000063  -0.035968   0.235472  -0.040098
     7  C    4.327466   0.000000   0.520847   0.379522   0.000025   0.002983
     8  N    0.000000   6.657125   0.000000   0.000007   0.203123  -0.000005
     9  O    0.520847   0.000000   8.213933  -0.062053   0.000000  -0.000003
    10  C    0.379522   0.000007  -0.062053   5.456709   0.002018  -0.006737
    11  C    0.000025   0.203123   0.000000   0.002018   5.405338   0.000816
    12  H    0.002983  -0.000005  -0.000003  -0.006737   0.000816   0.415490
    13  H   -0.000502  -0.000006  -0.000004   0.001093  -0.001847  -0.017251
    14  H   -0.000224  -0.001597  -0.000215  -0.017840  -0.051427   0.002433
    15  H    0.000011  -0.023448   0.000000  -0.000067   0.312039  -0.000224
    16  H    0.003353   0.000004   0.000192  -0.000262   0.000162   0.000436
    17  H   -0.004556   0.000000   0.006713   0.001363  -0.000064  -0.000159
    18  H    0.000001   0.298362   0.000000  -0.000013  -0.029856  -0.000001
    19  H    0.000000   0.322769   0.000000   0.000000  -0.025659   0.000000
    20  H    0.000430   0.000315   0.000000  -0.009519  -0.079337  -0.004612
    21  H    0.000000   0.356666   0.000000   0.000001  -0.020597   0.000000
    22  H   -0.028723   0.000000   0.005006   0.380365  -0.000012   0.000028
    23  H   -0.037301   0.000000   0.000223   0.395471  -0.000103  -0.001146
    24  H   -0.037827   0.000025   0.002008   0.397578   0.003138  -0.003290
    25  H   -0.000007  -0.050462   0.000000  -0.000022   0.348437   0.000029
    26  N   -0.000378   0.000000  -0.000264  -0.000005   0.000000   0.000000
    27  C   -0.000001   0.000000  -0.000002   0.000000   0.000000   0.000000
    28  C   -0.000027   0.000000  -0.000014   0.000000   0.000000   0.000000
    29  H    0.000001   0.000000   0.000000   0.000000   0.000000   0.000000
    30  H   -0.000001   0.000000   0.000000   0.000000   0.000000   0.000000
    31  H    0.000006   0.000000  -0.000005   0.000000   0.000000   0.000000
    32  H    0.000000   0.000000   0.000000   0.000000   0.000000   0.000000
    33  H    0.000028   0.000000   0.000001   0.000000   0.000000   0.000000
    34  H   -0.000007   0.000000   0.000000   0.000000  -0.000001   0.000000
             13         14         15         16         17         18
     1  N   -0.020781  -0.012479  -0.000103  -0.033912  -0.065462   0.000000
     2  C   -0.007410  -0.000320  -0.000062   0.380149   0.412951   0.000000
     3  C    0.000635  -0.000039   0.000002  -0.026646  -0.041666   0.000000
     4  O    0.000183   0.000000   0.000000   0.001298   0.001015   0.000000
     5  C    0.400293  -0.046334   0.001632  -0.005254   0.001901  -0.000005
     6  C   -0.051534   0.398785  -0.048864  -0.000612   0.000895   0.001791
     7  C   -0.000502  -0.000224   0.000011   0.003353  -0.004556   0.000001
     8  N   -0.000006  -0.001597  -0.023448   0.000004   0.000000   0.298362
     9  O   -0.000004  -0.000215   0.000000   0.000192   0.006713   0.000000
    10  C    0.001093  -0.017840  -0.000067  -0.000262   0.001363  -0.000013
    11  C   -0.001847  -0.051427   0.312039   0.000162  -0.000064  -0.029856
    12  H   -0.017251   0.002433  -0.000224   0.000436  -0.000159  -0.000001
    13  H    0.442610   0.001725   0.002276  -0.002567   0.000121   0.000002
    14  H    0.001725   0.574010  -0.000972  -0.000056   0.000052  -0.000033
    15  H    0.002276  -0.000972   0.561980   0.000434   0.000013   0.004163
    16  H   -0.002567  -0.000056   0.000434   0.522599  -0.022376   0.000000
    17  H    0.000121   0.000052   0.000013  -0.022376   0.482473   0.000000
    18  H    0.000002  -0.000033   0.004163   0.000000   0.000000   0.276514
    19  H    0.000000  -0.000105   0.004675   0.000000   0.000000   0.005177
    20  H    0.002240  -0.028706   0.009102   0.000011  -0.000006   0.002999
    21  H   -0.000001   0.000310  -0.006515   0.000000   0.000000  -0.038021
    22  H    0.000002   0.000383   0.000000   0.000004  -0.000026   0.000000
    23  H    0.000645   0.001132   0.000001  -0.000020  -0.000035   0.000000
    24  H    0.000353  -0.019764   0.000008   0.000054   0.000087  -0.000013
    25  H    0.000032   0.004539  -0.117388  -0.000027   0.000001  -0.007087
    26  N   -0.000004   0.000002   0.000000   0.000240   0.004345   0.000000
    27  C    0.000000   0.000000   0.000000  -0.000160  -0.000055   0.000000
    28  C   -0.000001  -0.000001   0.000000  -0.001117  -0.000790   0.000000
    29  H    0.000000   0.000000   0.000000  -0.000004  -0.000008   0.000000
    30  H    0.000000   0.000000   0.000000   0.000033  -0.000005   0.000000
    31  H    0.000000   0.000000   0.000000  -0.000014  -0.000013   0.000000
    32  H    0.000000   0.000000   0.000000   0.000078   0.000066   0.000000
    33  H    0.000000   0.000000   0.000000  -0.000375   0.000810   0.000000
    34  H    0.000000   0.000001  -0.000001   0.001704  -0.000895   0.000000
             19         20         21         22         23         24
     1  N    0.000000   0.003698   0.000000   0.008791  -0.003536  -0.009401
     2  C    0.000000  -0.000017   0.000001  -0.000297   0.000587  -0.000651
     3  C    0.000000   0.000004   0.000000   0.000008  -0.000018  -0.000047
     4  O    0.000000   0.000000   0.000000   0.000000   0.000012  -0.000002
     5  C   -0.000006  -0.029152  -0.000007   0.001228  -0.004769  -0.010502
     6  C    0.001154   0.388330  -0.000382   0.000223  -0.001719  -0.020537
     7  C    0.000000   0.000430   0.000000  -0.028723  -0.037301  -0.037827
     8  N    0.322769   0.000315   0.356666   0.000000   0.000000   0.000025
     9  O    0.000000   0.000000   0.000000   0.005006   0.000223   0.002008
    10  C    0.000000  -0.009519   0.000001   0.380365   0.395471   0.397578
    11  C   -0.025659  -0.079337  -0.020597  -0.000012  -0.000103   0.003138
    12  H    0.000000  -0.004612   0.000000   0.000028  -0.001146  -0.003290
    13  H    0.000000   0.002240  -0.000001   0.000002   0.000645   0.000353
    14  H   -0.000105  -0.028706   0.000310   0.000383   0.001132  -0.019764
    15  H    0.004675   0.009102  -0.006515   0.000000   0.000001   0.000008
    16  H    0.000000   0.000011   0.000000   0.000004  -0.000020   0.000054
    17  H    0.000000  -0.000006   0.000000  -0.000026  -0.000035   0.000087
    18  H    0.005177   0.002999  -0.038021   0.000000   0.000000  -0.000013
    19  H    0.258932   0.000054  -0.030319   0.000000   0.000000   0.000001
    20  H    0.000054   0.586414  -0.000391   0.000279   0.000595  -0.008359
    21  H   -0.030319  -0.000391   0.327393   0.000000   0.000000  -0.000001
    22  H    0.000000   0.000279   0.000000   0.427752  -0.012656  -0.015864
    23  H    0.000000   0.000595   0.000000  -0.012656   0.489675  -0.035568
    24  H    0.000001  -0.008359  -0.000001  -0.015864  -0.035568   0.591445
    25  H   -0.021721  -0.009959   0.010204   0.000000   0.000005  -0.000103
    26  N    0.000000   0.000000   0.000000   0.000000   0.000000   0.000000
    27  C    0.000000   0.000000   0.000000   0.000000   0.000000   0.000000
    28  C    0.000000   0.000000   0.000000   0.000000   0.000000   0.000000
    29  H    0.000000   0.000000   0.000000   0.000000   0.000000   0.000000
    30  H    0.000000   0.000000   0.000000   0.000000   0.000000   0.000000
    31  H    0.000000   0.000000   0.000000   0.000000   0.000000   0.000000
    32  H    0.000000   0.000000   0.000000   0.000000   0.000000   0.000000
    33  H    0.000000   0.000000   0.000000   0.000000   0.000000   0.000000
    34  H    0.000000   0.000000   0.000000   0.000000   0.000000   0.000000
             25         26         27         28         29         30
     1  N   -0.000063   0.001391  -0.000077   0.000181   0.000001   0.000000
     2  C    0.000014  -0.116942   0.004299  -0.006312   0.000005  -0.000158
     3  C    0.000000   0.299774  -0.036456  -0.024784   0.004090  -0.001998
     4  O    0.000000  -0.104690  -0.004483   0.002157   0.000665   0.000819
     5  C   -0.000279  -0.000022   0.000002  -0.000012   0.000000   0.000000
     6  C   -0.047602   0.000006   0.000000  -0.000002   0.000000   0.000000
     7  C   -0.000007  -0.000378  -0.000001  -0.000027   0.000001  -0.000001
     8  N   -0.050462   0.000000   0.000000   0.000000   0.000000   0.000000
     9  O    0.000000  -0.000264  -0.000002  -0.000014   0.000000   0.000000
    10  C   -0.000022  -0.000005   0.000000   0.000000   0.000000   0.000000
    11  C    0.348437   0.000000   0.000000   0.000000   0.000000   0.000000
    12  H    0.000029   0.000000   0.000000   0.000000   0.000000   0.000000
    13  H    0.000032  -0.000004   0.000000  -0.000001   0.000000   0.000000
    14  H    0.004539   0.000002   0.000000  -0.000001   0.000000   0.000000
    15  H   -0.117388   0.000000   0.000000   0.000000   0.000000   0.000000
    16  H   -0.000027   0.000240  -0.000160  -0.001117  -0.000004   0.000033
    17  H    0.000001   0.004345  -0.000055  -0.000790  -0.000008  -0.000005
    18  H   -0.007087   0.000000   0.000000   0.000000   0.000000   0.000000
    19  H   -0.021721   0.000000   0.000000   0.000000   0.000000   0.000000
    20  H   -0.009959   0.000000   0.000000   0.000000   0.000000   0.000000
    21  H    0.010204   0.000000   0.000000   0.000000   0.000000   0.000000
    22  H    0.000000   0.000000   0.000000   0.000000   0.000000   0.000000
    23  H    0.000005   0.000000   0.000000   0.000000   0.000000   0.000000
    24  H   -0.000103   0.000000   0.000000   0.000000   0.000000   0.000000
    25  H    0.700020   0.000000   0.000000   0.000000   0.000000   0.000000
    26  N    0.000000   7.415931   0.205954   0.204710  -0.043099  -0.052376
    27  C    0.000000   0.205954   4.960633  -0.036423   0.397464   0.403670
    28  C    0.000000   0.204710  -0.036423   4.951967  -0.003830  -0.000293
    29  H    0.000000  -0.043099   0.397464  -0.003830   0.523339  -0.035993
    30  H    0.000000  -0.052376   0.403670  -0.000293  -0.035993   0.537612
    31  H    0.000000  -0.029205   0.398650   0.002967  -0.020643  -0.024477
    32  H    0.000000  -0.032635  -0.003691   0.404105  -0.001244   0.001459
    33  H    0.000000  -0.054402   0.001716   0.403006   0.000889  -0.000325
    34  H    0.000000  -0.047829   0.002862   0.396274   0.000003   0.000335
             31         32         33         34
     1  N   -0.000004  -0.000001   0.000002   0.000036
     2  C    0.000272   0.000029  -0.000650  -0.001916
     3  C   -0.005603   0.000722   0.000987  -0.003440
     4  O    0.005760  -0.000044  -0.000048   0.000168
     5  C    0.000000   0.000000   0.000000  -0.000008
     6  C    0.000000   0.000000   0.000000   0.000003
     7  C    0.000006   0.000000   0.000028  -0.000007
     8  N    0.000000   0.000000   0.000000   0.000000
     9  O   -0.000005   0.000000   0.000001   0.000000
    10  C    0.000000   0.000000   0.000000   0.000000
    11  C    0.000000   0.000000   0.000000  -0.000001
    12  H    0.000000   0.000000   0.000000   0.000000
    13  H    0.000000   0.000000   0.000000   0.000000
    14  H    0.000000   0.000000   0.000000   0.000001
    15  H    0.000000   0.000000   0.000000  -0.000001
    16  H   -0.000014   0.000078  -0.000375   0.001704
    17  H   -0.000013   0.000066   0.000810  -0.000895
    18  H    0.000000   0.000000   0.000000   0.000000
    19  H    0.000000   0.000000   0.000000   0.000000
    20  H    0.000000   0.000000   0.000000   0.000000
    21  H    0.000000   0.000000   0.000000   0.000000
    22  H    0.000000   0.000000   0.000000   0.000000
    23  H    0.000000   0.000000   0.000000   0.000000
    24  H    0.000000   0.000000   0.000000   0.000000
    25  H    0.000000   0.000000   0.000000   0.000000
    26  N   -0.029205  -0.032635  -0.054402  -0.047829
    27  C    0.398650  -0.003691   0.001716   0.002862
    28  C    0.002967   0.404105   0.403006   0.396274
    29  H   -0.020643  -0.001244   0.000889   0.000003
    30  H   -0.024477   0.001459  -0.000325   0.000335
    31  H    0.431606   0.000089  -0.000020  -0.000152
    32  H    0.000089   0.466881  -0.026134  -0.021469
    33  H   -0.000020  -0.026134   0.523895  -0.038123
    34  H   -0.000152  -0.021469  -0.038123   0.562440
 Mulliken atomic charges:
              1
     1  N   -0.534476
     2  C   -0.286500
     3  C    0.799392
     4  O   -0.609442
     5  C   -0.116111
     6  C   -0.348494
     7  C    0.732590
     8  N   -0.761483
     9  O   -0.631228
    10  C   -0.626989
    11  C   -0.301384
    12  H    0.276170
    13  H    0.249698
    14  H    0.196741
    15  H    0.301307
    16  H    0.182653
    17  H    0.223308
    18  H    0.486018
    19  H    0.485047
    20  H    0.175588
    21  H    0.401660
    22  H    0.233510
    23  H    0.208526
    24  H    0.167227
    25  H    0.191441
    26  N   -0.650504
    27  C   -0.293903
    28  C   -0.291760
    29  H    0.178365
    30  H    0.171698
    31  H    0.240787
    32  H    0.211789
    33  H    0.188744
    34  H    0.150015
 Sum of Mulliken charges=   1.00000
 Atomic charges with hydrogens summed into heavy atoms:
              1
     1  N   -0.534476
     2  C    0.119461
     3  C    0.799392
     4  O   -0.609442
     5  C    0.409757
     6  C    0.023835
     7  C    0.732590
     8  N    0.611241
     9  O   -0.631228
    10  C   -0.017726
    11  C    0.191364
    12  H    0.000000
    13  H    0.000000
    14  H    0.000000
    15  H    0.000000
    16  H    0.000000
    17  H    0.000000
    18  H    0.000000
    19  H    0.000000
    20  H    0.000000
    21  H    0.000000
    22  H    0.000000
    23  H    0.000000
    24  H    0.000000
    25  H    0.000000
    26  N   -0.650504
    27  C    0.296947
    28  C    0.258788
    29  H    0.000000
    30  H    0.000000
    31  H    0.000000
    32  H    0.000000
    33  H    0.000000
    34  H    0.000000
 Sum of Mulliken charges=   1.00000
 Electronic spatial extent (au):  <R**2>=  4084.8683
 Charge=     1.0000 electrons
 Dipole moment (field-independent basis, Debye):
    X=   -23.0245    Y=   -12.8359    Z=    -0.1845  Tot=    26.3614
 Quadrupole moment (field-independent basis, Debye-Ang):
   XX=    18.4087   YY=   -69.6901   ZZ=   -84.4827
   XY=    24.1595   XZ=     4.7647   YZ=     8.4683
 Traceless Quadrupole moment (field-independent basis, Debye-Ang):
   XX=    63.6634   YY=   -24.4354   ZZ=   -39.2280
   XY=    24.1595   XZ=     4.7647   YZ=     8.4683
 Octapole moment (field-independent basis, Debye-Ang**2):
  XXX=  -442.1619  YYY=   -61.2826  ZZZ=     2.9640  XYY=   -92.7695
  XXY=  -218.0681  XXZ=   -78.7964  XZZ=   -47.5205  YZZ=   -24.7011
  YYZ=     5.7008  XYZ=   -13.9790
 Hexadecapole moment (field-independent basis, Debye-Ang**3):
 XXXX= -1043.6734 YYYY= -1090.8916 ZZZZ=  -425.7941 XXXY=   902.7192
 XXXZ=   323.2570 YYYX=   205.2866 YYYZ=    53.7621 ZZZX=    22.2859
 ZZZY=    26.9002 XXYY=  -336.8818 XXZZ=  -572.7604 YYZZ=  -268.3917
 XXYZ=    98.8967 YYXZ=    32.6076 ZZXY=    32.1824
 N-N= 9.670990995500D+02 E-N=-3.475128564541D+03  KE= 6.638356337848D+02
 PrsmSu:  requested number of processors reduced to:   2 ShMem   1 Linda.
 ***** Axes restored to original set *****
 -------------------------------------------------------------------
 Center     Atomic                   Forces (Hartrees/Bohr)
 Number     Number              X              Y              Z
 -------------------------------------------------------------------
    1          7          -0.163870242   -0.097092726    0.051347322
    2          6          -0.011403175   -0.023438416   -0.016246657
    3          6           0.031226998   -0.014152640    0.032526841
    4          8          -0.026965531    0.019160764   -0.039831120
    5          6           0.000157700   -0.006510002    0.012229540
    6          6           0.084394148    0.134026778   -0.184133683
    7          6           0.182466625    0.055227097   -0.037398695
    8          7           0.131933083    0.191464006    0.351048698
    9          8          -0.134606627    0.073647005    0.069135086
   10          6           0.068001400   -0.009397274   -0.044262827
   11          6          -0.008941844   -0.076856832    0.259230831
   12          1          -0.016718128   -0.015343184   -0.017445832
   13          1           0.028718046   -0.010659759   -0.010390041
   14          1          -0.049961204    0.026207861    0.061789298
   15          1          -0.040032730   -0.043993899   -0.086465751
   16          1           0.020188799    0.003132571    0.000420727
   17          1          -0.016388147   -0.018111930    0.011505812
   18          1          -0.030378526    0.000738705    0.049565232
   19          1           0.020424877    0.034898842    0.016633946
   20          1          -0.022728502   -0.083899845    0.011631835
   21          1          -0.130631189   -0.209388146   -0.468893866
   22          1           0.024030850    0.013071334   -0.008646865
   23          1           0.009515503    0.004236637    0.019644665
   24          1           0.011452991    0.011099048   -0.006046821
   25          1           0.042236481    0.042147300   -0.029489112
   26          7          -0.000483365   -0.004799734    0.007432658
   27          6           0.001597624   -0.001854814    0.002211671
   28          6           0.009575504    0.008217972    0.001232259
   29          1          -0.002100172    0.004063048    0.003488859
   30          1           0.005051725   -0.002108721   -0.001003267
   31          1          -0.010145054   -0.002487472   -0.006332721
   32          1           0.001913279    0.008216671    0.000953389
   33          1          -0.006422107   -0.003149680    0.000073759
   34          1          -0.001109091   -0.006310564   -0.005515167
 -------------------------------------------------------------------
 Cartesian Forces:  Max     0.468893866 RMS     0.085672545

 GradGradGradGradGradGradGradGradGradGradGradGradGradGradGradGradGradGrad
 Berny optimization.
 Internal  Forces:  Max     0.524829316 RMS     0.056556376
 Search for a local minimum.
 Step number   1 out of a maximum of 174
 All quantities printed in internal units (Hartrees-Bohrs-Radians)
 Second derivative matrix not updated -- first step.
     Eigenvalues ---    0.00230   0.00230   0.00230   0.00249   0.00338
     Eigenvalues ---    0.00886   0.00927   0.00941   0.01048   0.01133
     Eigenvalues ---    0.01395   0.01688   0.01889   0.01960   0.01972
     Eigenvalues ---    0.02320   0.03330   0.03987   0.04065   0.04333
     Eigenvalues ---    0.04562   0.05117   0.05472   0.05714   0.06527
     Eigenvalues ---    0.07228   0.07244   0.07591   0.07605   0.07617
     Eigenvalues ---    0.07637   0.08435   0.10221   0.12298   0.13487
     Eigenvalues ---    0.13533   0.14148   0.14744   0.15125   0.15970
     Eigenvalues ---    0.16000   0.16000   0.16000   0.16000   0.16000
     Eigenvalues ---    0.16000   0.16000   0.16000   0.16000   0.16000
     Eigenvalues ---    0.16000   0.16000   0.18744   0.19853   0.21130
     Eigenvalues ---    0.21479   0.21836   0.21928   0.22030   0.23332
     Eigenvalues ---    0.24009   0.24231   0.24409   0.24933   0.25000
     Eigenvalues ---    0.25000   0.25611   0.27802   0.28118   0.28604
     Eigenvalues ---    0.29204   0.29582   0.32346   0.32347   0.32442
     Eigenvalues ---    0.33295   0.34669   0.34766   0.34776   0.34789
     Eigenvalues ---    0.34811   0.34833   0.35845   0.36852   0.37242
     Eigenvalues ---    0.37378   0.39857   0.39904   0.39962   0.43516
     Eigenvalues ---    0.49153   0.54490   0.59981   0.74270   0.92407
     Eigenvalues ---    1.304841000.000001000.000001000.000001000.00000
     Eigenvalues --- 1000.000001000.000001000.000001000.000001000.00000
     Eigenvalues --- 1000.000001000.000001000.000001000.000001000.00000
     Eigenvalues --- 1000.000001000.000001000.000001000.000001000.00000
     Eigenvalues --- 1000.000001000.000001000.000001000.000001000.00000
     Eigenvalues --- 1000.000001000.000001000.000001000.000001000.00000
     Eigenvalues --- 1000.000001000.000001000.000001000.000001000.00000
     Eigenvalues --- 1000.000001000.000001000.000001000.000001000.00000
     Eigenvalues --- 1000.000001000.000001000.000001000.000001000.00000
     Eigenvalues --- 1000.000001000.000001000.000001000.000001000.00000
     Eigenvalues --- 1000.000001000.000001000.000001000.000001000.00000
     Eigenvalues --- 1000.000001000.000001000.000001000.000001000.00000
     Eigenvalues --- 1000.000001000.000001000.000001000.000001000.00000
     Eigenvalues --- 1000.000001000.000001000.000001000.00000
 RFO step:  Lambda=-4.84402805D-01.
 Linear search not attempted -- first point.
 Maximum step size (   0.300) exceeded in Quadratic search.
    -- Step size scaled by   0.406
 Iteration  1 RMS(Cart)=  0.12607824 RMS(Int)=  0.00448601
 Iteration  2 RMS(Cart)=  0.00875363 RMS(Int)=  0.00010911
 Iteration  3 RMS(Cart)=  0.00005533 RMS(Int)=  0.00010675
 Iteration  4 RMS(Cart)=  0.00000000 RMS(Int)=  0.00010675
 Variable       Old X    -DE/DX   Delta X   Delta X   Delta X     New X
                                 (Linear)    (Quad)   (Total)
    R1        2.75280   0.03185   0.00000   0.01508   0.01508   2.76789
    R2        2.92574  -0.03137   0.00000  -0.01672  -0.01672   2.90901
    R3        2.41161   0.14739   0.00000   0.04882   0.04882   2.46044
    R4        2.89579  -0.00567   0.00000  -0.00297  -0.00297   2.89282
    R5        2.10043  -0.01946   0.00000  -0.00978  -0.00978   2.09064
    R6        2.08536  -0.01471   0.00000  -0.00731  -0.00731   2.07805
    R7        2.31843  -0.04919   0.00000  -0.01419  -0.01419   2.30424
    R8        2.55588  -0.00068   0.00000  -0.00027  -0.00027   2.55561
    R9        2.91882   0.02411   0.00000   0.01280   0.01280   2.93162
   R10        2.10216  -0.02850   0.00000  -0.01434  -0.01434   2.08782
   R11        2.10214  -0.02281   0.00000  -0.01147  -0.01147   2.09066
   R12        3.35910  -0.04839   0.00000  -0.03113  -0.03113   3.32797
   R13        2.36906  -0.08293   0.00000  -0.04845  -0.04845   2.32060
   R14        2.45123  -0.08601   0.00000  -0.05204  -0.05204   2.39919
   R15        2.50955  -0.16470   0.00000  -0.06175  -0.06175   2.44781
   R16        2.90837   0.02704   0.00000   0.01427   0.01427   2.92264
   R17        2.60729   0.05125   0.00000   0.02135   0.02135   2.62864
   R18        2.04325  -0.03870   0.00000  -0.01866  -0.01866   2.02459
   R19        1.93737  -0.00566   0.00000  -0.00250  -0.00250   1.93487
   R20        1.45142   0.52483   0.00000   0.11923   0.11923   1.57065
   R21        1.98384   0.02811   0.00000   0.01294   0.01294   1.99677
   R22        1.98448   0.02043   0.00000   0.00940   0.00940   1.99388
   R23        1.98305  -0.00061   0.00000  -0.00028  -0.00028   1.98278
   R24        2.15506  -0.01803   0.00000  -0.00939  -0.00939   2.14567
   R25        2.24379  -0.02694   0.00000  -0.01479  -0.01479   2.22900
   R26        2.76070  -0.00043   0.00000  -0.00021  -0.00021   2.76050
   R27        2.75482  -0.00083   0.00000  -0.00040  -0.00040   2.75443
   R28        2.06019  -0.00558   0.00000  -0.00272  -0.00272   2.05746
   R29        2.06041  -0.00320   0.00000  -0.00156  -0.00156   2.05884
   R30        2.06216  -0.01220   0.00000  -0.00597  -0.00597   2.05619
   R31        2.06056  -0.00840   0.00000  -0.00410  -0.00410   2.05646
   R32        2.05983  -0.00334   0.00000  -0.00163  -0.00163   2.05819
   R33        2.05946  -0.00453   0.00000  -0.00221  -0.00221   2.05725
    A1        1.89212  -0.03222   0.00000  -0.01794  -0.01804   1.87408
    A2        1.90871   0.00321   0.00000   0.00214   0.00210   1.91081
    A3        2.33227   0.04070   0.00000   0.02484   0.02488   2.35715
    A4        1.99848  -0.01708   0.00000  -0.00980  -0.00980   1.98868
    A5        1.99529  -0.00442   0.00000  -0.00365  -0.00367   1.99162
    A6        1.76362   0.02586   0.00000   0.01737   0.01738   1.78100
    A7        1.89628   0.00846   0.00000   0.00437   0.00434   1.90062
    A8        1.91848  -0.00700   0.00000  -0.00464  -0.00460   1.91389
    A9        1.88421  -0.00507   0.00000  -0.00304  -0.00304   1.88117
   A10        2.13821  -0.01865   0.00000  -0.01031  -0.01032   2.12789
   A11        2.02658   0.00099   0.00000   0.00057   0.00057   2.02715
   A12        2.11561   0.01787   0.00000   0.00992   0.00992   2.12553
   A13        1.89038   0.07553   0.00000   0.04417   0.04420   1.93458
   A14        1.92755  -0.01843   0.00000  -0.00961  -0.00998   1.91757
   A15        1.99019  -0.03753   0.00000  -0.02419  -0.02411   1.96608
   A16        1.89501  -0.00525   0.00000  -0.00009  -0.00020   1.89481
   A17        1.89739  -0.02581   0.00000  -0.01524  -0.01497   1.88242
   A18        1.86126   0.01057   0.00000   0.00468   0.00449   1.86575
   A19        2.53162  -0.10277   0.00000  -0.05959  -0.05958   2.47205
   A20        1.78757   0.03492   0.00000   0.02122   0.02123   1.80879
   A21        1.97035   0.01521   0.00000   0.00785   0.00788   1.97823
   A22        1.68021   0.02115   0.00000   0.01121   0.01130   1.69151
   A23        1.61953   0.05925   0.00000   0.03469   0.03458   1.65411
   A24        1.72311  -0.00439   0.00000  -0.00104  -0.00134   1.72177
   A25        2.44571  -0.15699   0.00000  -0.08751  -0.08752   2.35820
   A26        1.65877   0.25268   0.00000   0.13975   0.13982   1.79859
   A27        2.16340  -0.09733   0.00000  -0.05367  -0.05357   2.10983
   A28        2.01694  -0.00422   0.00000  -0.00333  -0.00337   2.01357
   A29        1.88118   0.01123   0.00000   0.00695   0.00707   1.88825
   A30        2.23851  -0.06640   0.00000  -0.04103  -0.04092   2.19759
   A31        2.13148  -0.02185   0.00000  -0.01523  -0.01529   2.11619
   A32        1.58609   0.04407   0.00000   0.02830   0.02830   1.61439
   A33        1.58682   0.03349   0.00000   0.02255   0.02281   1.60963
   A34        1.91068   0.00110   0.00000   0.00033   0.00033   1.91100
   A35        1.91215   0.00006   0.00000   0.00013   0.00011   1.91226
   A36        1.91272   0.01830   0.00000   0.01181   0.01179   1.92452
   A37        1.90859  -0.00745   0.00000  -0.00525  -0.00525   1.90334
   A38        1.90971  -0.01199   0.00000  -0.00774  -0.00775   1.90196
   A39        1.90994  -0.00009   0.00000   0.00067   0.00063   1.91058
   A40        2.51187  -0.06175   0.00000  -0.03610  -0.03619   2.47568
   A41        1.43764   0.09529   0.00000   0.05938   0.05946   1.49711
   A42        1.68256   0.01995   0.00000   0.01039   0.01009   1.69264
   A43        2.33118  -0.03237   0.00000  -0.02230  -0.02237   2.30881
   A44        1.77500   0.00312   0.00000   0.00157   0.00164   1.77664
   A45        0.99603   0.02142   0.00000   0.01823   0.01888   1.01491
   A46        2.02756   0.01084   0.00000   0.00609   0.00609   2.03365
   A47        2.17002  -0.00662   0.00000  -0.00369  -0.00369   2.16633
   A48        2.05179  -0.00397   0.00000  -0.00218  -0.00218   2.04961
   A49        1.91216  -0.00325   0.00000  -0.00209  -0.00209   1.91007
   A50        1.91098   0.00719   0.00000   0.00458   0.00458   1.91556
   A51        1.91033   0.00001   0.00000   0.00000   0.00000   1.91033
   A52        1.91113  -0.00185   0.00000  -0.00115  -0.00115   1.90998
   A53        1.90939   0.00039   0.00000   0.00015   0.00015   1.90954
   A54        1.90981  -0.00250   0.00000  -0.00149  -0.00150   1.90831
   A55        1.91097  -0.00334   0.00000  -0.00224  -0.00223   1.90874
   A56        1.91179   0.00831   0.00000   0.00533   0.00532   1.91711
   A57        1.90888   0.00882   0.00000   0.00561   0.00560   1.91447
   A58        1.91140  -0.00368   0.00000  -0.00241  -0.00241   1.90899
   A59        1.91038  -0.00506   0.00000  -0.00337  -0.00336   1.90702
   A60        1.91037  -0.00504   0.00000  -0.00292  -0.00294   1.90743
    D1       -2.08879   0.01971   0.00000   0.01455   0.01446  -2.07433
    D2        0.11512   0.01245   0.00000   0.00870   0.00865   0.12378
    D3        2.13371   0.01994   0.00000   0.01386   0.01382   2.14753
    D4        1.53115  -0.01100   0.00000  -0.00688  -0.00685   1.52430
    D5       -2.54812  -0.01826   0.00000  -0.01273  -0.01266  -2.56078
    D6       -0.52953  -0.01077   0.00000  -0.00757  -0.00749  -0.53702
    D7       -1.48403   0.02081   0.00000   0.01656   0.01666  -1.46737
    D8        2.72607  -0.00793   0.00000  -0.00454  -0.00443   2.72164
    D9        0.63073   0.01771   0.00000   0.01309   0.01294   0.64367
   D10        1.01408   0.03699   0.00000   0.03037   0.03042   1.04451
   D11       -1.05901   0.00825   0.00000   0.00926   0.00934  -1.04967
   D12        3.12885   0.03389   0.00000   0.02689   0.02670  -3.12764
   D13       -0.63755   0.03702   0.00000   0.02906   0.02900  -0.60856
   D14        2.70327   0.03782   0.00000   0.03276   0.03303   2.73630
   D15       -3.13139   0.02967   0.00000   0.02022   0.01996  -3.11143
   D16        0.20944   0.03046   0.00000   0.02393   0.02399   0.23343
   D17        0.35085  -0.00738   0.00000  -0.00522  -0.00524   0.34561
   D18       -2.71148  -0.01130   0.00000  -0.00826  -0.00826  -2.71974
   D19       -1.90349   0.00511   0.00000   0.00389   0.00389  -1.89960
   D20        1.31737   0.00119   0.00000   0.00086   0.00086   1.31824
   D21        2.32141   0.01028   0.00000   0.00766   0.00766   2.32907
   D22       -0.74092   0.00636   0.00000   0.00462   0.00464  -0.73628
   D23        3.00638   0.00332   0.00000   0.00274   0.00275   3.00913
   D24       -0.41931   0.00395   0.00000   0.00342   0.00343  -0.41588
   D25       -0.05705   0.00123   0.00000   0.00073   0.00072  -0.05633
   D26        2.80044   0.00186   0.00000   0.00141   0.00140   2.80184
   D27        2.02463  -0.00763   0.00000  -0.00555  -0.00578   2.01885
   D28       -0.08172  -0.00041   0.00000  -0.00093  -0.00095  -0.08267
   D29       -1.91723  -0.01799   0.00000  -0.01298  -0.01301  -1.93025
   D30       -2.16497   0.01091   0.00000   0.00841   0.00836  -2.15662
   D31        2.01186   0.01813   0.00000   0.01303   0.01319   2.02505
   D32        0.17635   0.00055   0.00000   0.00097   0.00112   0.17747
   D33       -0.14655   0.00678   0.00000   0.00573   0.00561  -0.14094
   D34       -2.25289   0.01400   0.00000   0.01035   0.01044  -2.24246
   D35        2.19478  -0.00358   0.00000  -0.00170  -0.00163   2.19315
   D36       -3.11445  -0.00126   0.00000  -0.00063  -0.00070  -3.11515
   D37        0.10577  -0.02237   0.00000  -0.01741  -0.01753   0.08824
   D38        1.07375   0.01678   0.00000   0.01252   0.01232   1.08608
   D39       -0.97927   0.00045   0.00000   0.00048   0.00050  -0.97877
   D40        2.24096  -0.02066   0.00000  -0.01631  -0.01634   2.22462
   D41       -3.07425   0.01849   0.00000   0.01362   0.01352  -3.06073
   D42        0.75037   0.00450   0.00000   0.00431   0.00454   0.75491
   D43       -2.31258  -0.01661   0.00000  -0.01248  -0.01230  -2.32488
   D44       -1.34460   0.02253   0.00000   0.01745   0.01755  -1.32705
   D45        3.04743  -0.01319   0.00000  -0.00938  -0.00925   3.03818
   D46        0.95458  -0.00477   0.00000  -0.00324  -0.00309   0.95148
   D47       -1.14119  -0.01598   0.00000  -0.01142  -0.01130  -1.15248
   D48        0.05940   0.00637   0.00000   0.00408   0.00395   0.06335
   D49       -2.03345   0.01479   0.00000   0.01023   0.01011  -2.02334
   D50        2.15397   0.00358   0.00000   0.00205   0.00191   2.15587
   D51       -0.17795  -0.01666   0.00000  -0.01297  -0.01296  -0.19091
   D52        2.85598   0.01425   0.00000   0.01149   0.01136   2.86733
   D53        1.89075  -0.03291   0.00000  -0.02540  -0.02523   1.86552
   D54       -2.63146   0.00900   0.00000   0.00635   0.00627  -2.62519
   D55        0.40247   0.03991   0.00000   0.03081   0.03059   0.43306
   D56       -0.56276  -0.00725   0.00000  -0.00607  -0.00599  -0.56876
   D57        1.80301  -0.01073   0.00000  -0.00842  -0.00837   1.79464
   D58       -1.44625   0.02018   0.00000   0.01604   0.01595  -1.43031
   D59       -2.41148  -0.02698   0.00000  -0.02085  -0.02063  -2.43212
   D60       -2.57770   0.00020   0.00000   0.00027   0.00027  -2.57744
   D61        1.60934   0.00003   0.00000   0.00015   0.00015   1.60948
   D62       -0.48408  -0.00131   0.00000  -0.00083  -0.00083  -0.48491
   D63        0.82803   0.00028   0.00000   0.00001   0.00001   0.82804
   D64       -1.26812   0.00011   0.00000  -0.00011  -0.00011  -1.26823
   D65        2.92165  -0.00123   0.00000  -0.00108  -0.00108   2.92057
   D66       -2.65414  -0.00088   0.00000  -0.00056  -0.00056  -2.65470
   D67        1.53279   0.00058   0.00000   0.00050   0.00051   1.53329
   D68       -0.56092  -0.00372   0.00000  -0.00262  -0.00263  -0.56355
   D69        0.19975   0.00194   0.00000   0.00135   0.00135   0.20110
   D70       -1.89651   0.00340   0.00000   0.00241   0.00242  -1.89409
   D71        2.29297  -0.00089   0.00000  -0.00071  -0.00072   2.29225
         Item               Value     Threshold  Converged?
 Maximum Force            0.524829     0.000450     NO 
 RMS     Force            0.056556     0.000300     NO 
 Maximum Displacement     0.726031     0.001800     NO 
 RMS     Displacement     0.128669     0.001200     NO 
 Predicted change in Energy=-1.786681D-01
[...]
     5  C    0.234803  -0.043026  -0.003344   0.001322   4.923246   0.303817
     6  C   -0.071420  -0.001948  -0.000089   0.000490   0.303817   5.277584
     7  C    0.250534  -0.038710   0.000572   0.007832  -0.022801   0.000247
     8  N   -0.000046   0.000001   0.000000   0.000000   0.002025  -0.055996
     9  O   -0.104609   0.001288   0.002350  -0.000991   0.001892  -0.000046
    10  C   -0.111094   0.004629  -0.000326  -0.000199  -0.004179  -0.000548
    11  C    0.004617  -0.000092   0.000016   0.000001  -0.044234   0.287870
    12  H   -0.034169   0.003171   0.000014   0.000165   0.414187  -0.054256
    13  H   -0.034939  -0.002338   0.002468   0.006821   0.413125  -0.055565
    14  H   -0.001024   0.000901   0.000004   0.000008  -0.027577   0.394190
    15  H   -0.000051   0.000013  -0.000001  -0.000004   0.000704  -0.033358
    16  H   -0.043048   0.394369  -0.040532   0.001224  -0.003470   0.001028
    17  H   -0.030898   0.392384  -0.029250   0.001569   0.003999  -0.000002
    18  H   -0.000002   0.000000   0.000000   0.000000  -0.000055  -0.000336
    19  H    0.000001   0.000000   0.000000   0.000000  -0.000038   0.002812
    20  H    0.000628   0.000141   0.000000  -0.000004  -0.025469   0.389790
    21  H   -0.000001   0.000000   0.000000   0.000000  -0.000058  -0.000377
    22  H    0.003430  -0.000107   0.000000   0.000000   0.000259   0.000001
    23  H    0.002185  -0.000248   0.000043   0.000194  -0.002951   0.000168
    24  H    0.004670  -0.000127   0.000016   0.000001  -0.002612  -0.001019
    25  H   -0.000027   0.000000   0.000000   0.000000  -0.000052  -0.033354
    26  N    0.002739  -0.108169   0.311397  -0.093948   0.000183   0.000009
    27  C   -0.000104   0.003711  -0.031484  -0.004803  -0.000003   0.000000
    28  C    0.000204   0.000589  -0.033926   0.001719  -0.000010  -0.000001
    29  H    0.000003  -0.000086  -0.001380   0.000607   0.000000   0.000000
    30  H    0.000001  -0.000050   0.003193   0.000329   0.000000   0.000000
    31  H   -0.000010   0.000509  -0.004194   0.008893  -0.000003   0.000000
    32  H   -0.000002  -0.000006   0.002383  -0.000046   0.000000   0.000000
    33  H   -0.000013  -0.000815  -0.000830   0.000045   0.000000   0.000000
    34  H    0.000132  -0.001277  -0.004683   0.000029  -0.000005   0.000000
              7          8          9         10         11         12
     1  N    0.250534  -0.000046  -0.104609  -0.111094   0.004617  -0.034169
     2  C   -0.038710   0.000001   0.001288   0.004629  -0.000092   0.003171
     3  C    0.000572   0.000000   0.002350  -0.000326   0.000016   0.000014
     4  O    0.007832   0.000000  -0.000991  -0.000199   0.000001   0.000165
     5  C   -0.022801   0.002025   0.001892  -0.004179  -0.044234   0.414187
     6  C    0.000247  -0.055996  -0.000046  -0.000548   0.287870  -0.054256
     7  C    4.142916   0.000000   0.614436   0.370864  -0.000011  -0.002385
     8  N    0.000000   6.940641   0.000000   0.000001   0.124911  -0.000082
     9  O    0.614436   0.000000   8.124370  -0.071927   0.000000   0.000115
    10  C    0.370864   0.000001  -0.071927   5.281431  -0.000019  -0.002030
    11  C   -0.000011   0.124911   0.000000  -0.000019   5.177936  -0.001338
    12  H   -0.002385  -0.000082   0.000115  -0.002030  -0.001338   0.486770
    13  H    0.000590  -0.000078  -0.000017   0.000064  -0.000615  -0.019430
    14  H    0.000171  -0.002035  -0.000003  -0.000023  -0.042033   0.003366
    15  H   -0.000001  -0.035943   0.000000   0.000000   0.400614   0.000215
    16  H    0.004490   0.000001   0.000628  -0.000005  -0.000100   0.000050
    17  H   -0.005302   0.000000   0.009304   0.000299  -0.000001  -0.000100
    18  H    0.000000   0.305366   0.000000   0.000000  -0.015468   0.000008
    19  H    0.000000   0.310250   0.000000   0.000000  -0.016818   0.000004
    20  H    0.000047  -0.002119  -0.000017   0.000406  -0.040807  -0.002087
    21  H    0.000000   0.305365   0.000000   0.000000  -0.015420   0.000002
    22  H   -0.030285   0.000000   0.003312   0.386844  -0.000001   0.000107
    23  H   -0.028232   0.000000   0.000002   0.378187   0.000002   0.000381
    24  H   -0.035900  -0.000002   0.002259   0.369732   0.000055  -0.002334
    25  H    0.000002  -0.036275   0.000000   0.000004   0.401166   0.001535
    26  N   -0.000086   0.000000  -0.000335  -0.000007   0.000000   0.000001
    27  C    0.000001   0.000000  -0.000001   0.000000   0.000000   0.000000
    28  C   -0.000042   0.000000  -0.000058   0.000000   0.000000   0.000000
    29  H    0.000003   0.000000   0.000000   0.000000   0.000000   0.000000
    30  H    0.000000   0.000000   0.000000   0.000000   0.000000   0.000000
    31  H   -0.000003   0.000000   0.000000   0.000000   0.000000   0.000000
    32  H    0.000000   0.000000   0.000000   0.000000   0.000000   0.000000
    33  H    0.000051   0.000000   0.000095   0.000000   0.000000   0.000000
    34  H   -0.000011   0.000000   0.000000   0.000000   0.000000   0.000000
             13         14         15         16         17         18
     1  N   -0.034939  -0.001024  -0.000051  -0.043048  -0.030898  -0.000002
     2  C   -0.002338   0.000901   0.000013   0.394369   0.392384   0.000000
     3  C    0.002468   0.000004  -0.000001  -0.040532  -0.029250   0.000000
     4  O    0.006821   0.000008  -0.000004   0.001224   0.001569   0.000000
     5  C    0.413125  -0.027577   0.000704  -0.003470   0.003999  -0.000055
     6  C   -0.055565   0.394190  -0.033358   0.001028  -0.000002  -0.000336
     7  C    0.000590   0.000171  -0.000001   0.004490  -0.005302   0.000000
     8  N   -0.000078  -0.002035  -0.035943   0.000001   0.000000   0.305366
     9  O   -0.000017  -0.000003   0.000000   0.000628   0.009304   0.000000
    10  C    0.000064  -0.000023   0.000000  -0.000005   0.000299   0.000000
    11  C   -0.000615  -0.042033   0.400614  -0.000100  -0.000001  -0.015468
    12  H   -0.019430   0.003366   0.000215   0.000050  -0.000100   0.000008
    13  H    0.462711  -0.001550   0.001433  -0.002241   0.000055   0.000001
    14  H   -0.001550   0.500301  -0.002250   0.000651  -0.000037  -0.000069
    15  H    0.001433  -0.002250   0.426819   0.000007   0.000000   0.002633
    16  H   -0.002241   0.000651   0.000007   0.519015  -0.019027   0.000000
    17  H    0.000055  -0.000037   0.000000  -0.019027   0.422106   0.000000
    18  H    0.000001  -0.000069   0.002633   0.000000   0.000000   0.262958
    19  H    0.000004  -0.000082  -0.001697   0.000000   0.000000  -0.009809
    20  H    0.003096  -0.026178   0.003166  -0.000001  -0.000018   0.002715
    21  H    0.000009   0.002740  -0.002045  -0.000001   0.000000  -0.010550
    22  H   -0.000002   0.000000   0.000000   0.000002  -0.000003   0.000000
    23  H    0.000047  -0.000003   0.000000  -0.000001  -0.000009   0.000000
    24  H    0.000142   0.000041  -0.000002  -0.000009  -0.000023  -0.000003
    25  H    0.000303   0.003151  -0.020203  -0.000002   0.000000  -0.002085
    26  N   -0.000168   0.000000   0.000000   0.001298   0.002369   0.000000
    27  C    0.000010   0.000000   0.000000  -0.000186  -0.000199   0.000000
    28  C    0.000000   0.000000   0.000000  -0.001064  -0.002273   0.000000
    29  H   -0.000001   0.000000   0.000000  -0.000004   0.000011   0.000000
    30  H    0.000000   0.000000   0.000000   0.000013  -0.000004   0.000000
    31  H    0.000005   0.000000   0.000000  -0.000014  -0.000013   0.000000
    32  H    0.000000   0.000000   0.000000   0.000009   0.000198   0.000000
    33  H   -0.000001   0.000000   0.000000  -0.000040   0.000572   0.000000
    34  H    0.000005   0.000000   0.000000   0.000627  -0.003246   0.000000
             19         20         21         22         23         24
     1  N    0.000001   0.000628  -0.000001   0.003430   0.002185   0.004670
     2  C    0.000000   0.000141   0.000000  -0.000107  -0.000248  -0.000127
     3  C    0.000000   0.000000   0.000000   0.000000   0.000043   0.000016
     4  O    0.000000  -0.000004   0.000000   0.000000   0.000194   0.000001
     5  C   -0.000038  -0.025469  -0.000058   0.000259  -0.002951  -0.002612
     6  C    0.002812   0.389790  -0.000377   0.000001   0.000168  -0.001019
     7  C    0.000000   0.000047   0.000000  -0.030285  -0.028232  -0.035900
     8  N    0.310250  -0.002119   0.305365   0.000000   0.000000  -0.000002
     9  O    0.000000  -0.000017   0.000000   0.003312   0.000002   0.002259
    10  C    0.000000   0.000406   0.000000   0.386844   0.378187   0.369732
    11  C   -0.016818  -0.040807  -0.015420  -0.000001   0.000002   0.000055
    12  H    0.000004  -0.002087   0.000002   0.000107   0.000381  -0.002334
    13  H    0.000004   0.003096   0.000009  -0.000002   0.000047   0.000142
    14  H   -0.000082  -0.026178   0.002740   0.000000  -0.000003   0.000041
    15  H   -0.001697   0.003166  -0.002045   0.000000   0.000000  -0.000002
    16  H    0.000000  -0.000001  -0.000001   0.000002  -0.000001  -0.000009
    17  H    0.000000  -0.000018   0.000000  -0.000003  -0.000009  -0.000023
    18  H   -0.009809   0.002715  -0.010550   0.000000   0.000000  -0.000003
    19  H    0.256289  -0.000072  -0.009815   0.000000   0.000000   0.000000
    20  H   -0.000072   0.498841  -0.000067  -0.000004  -0.000005   0.001019
    21  H   -0.009815  -0.000067   0.263394   0.000000   0.000000   0.000000
    22  H    0.000000  -0.000004   0.000000   0.427753  -0.014796  -0.019969
    23  H    0.000000  -0.000005   0.000000  -0.014796   0.475325  -0.027012
    24  H    0.000000   0.001019   0.000000  -0.019969  -0.027012   0.556128
    25  H   -0.001687  -0.002152   0.002657   0.000000  -0.000002   0.000049
    26  N    0.000000   0.000000   0.000000   0.000000   0.000000   0.000000
    27  C    0.000000   0.000000   0.000000   0.000000   0.000000   0.000000
    28  C    0.000000   0.000000   0.000000   0.000000   0.000000   0.000000
    29  H    0.000000   0.000000   0.000000   0.000000   0.000000   0.000000
    30  H    0.000000   0.000000   0.000000   0.000000   0.000000   0.000000
    31  H    0.000000   0.000000   0.000000   0.000000   0.000000   0.000000
    32  H    0.000000   0.000000   0.000000   0.000000   0.000000   0.000000
    33  H    0.000000   0.000000   0.000000   0.000000   0.000000   0.000000
    34  H    0.000000   0.000000   0.000000   0.000000   0.000000   0.000000
             25         26         27         28         29         30
     1  N   -0.000027   0.002739  -0.000104   0.000204   0.000003   0.000001
     2  C    0.000000  -0.108169   0.003711   0.000589  -0.000086  -0.000050
     3  C    0.000000   0.311397  -0.031484  -0.033926  -0.001380   0.003193
     4  O    0.000000  -0.093948  -0.004803   0.001719   0.000607   0.000329
     5  C   -0.000052   0.000183  -0.000003  -0.000010   0.000000   0.000000
     6  C   -0.033354   0.000009   0.000000  -0.000001   0.000000   0.000000
     7  C    0.000002  -0.000086   0.000001  -0.000042   0.000003   0.000000
     8  N   -0.036275   0.000000   0.000000   0.000000   0.000000   0.000000
     9  O    0.000000  -0.000335  -0.000001  -0.000058   0.000000   0.000000
    10  C    0.000004  -0.000007   0.000000   0.000000   0.000000   0.000000
    11  C    0.401166   0.000000   0.000000   0.000000   0.000000   0.000000
    12  H    0.001535   0.000001   0.000000   0.000000   0.000000   0.000000
    13  H    0.000303  -0.000168   0.000010   0.000000  -0.000001   0.000000
    14  H    0.003151   0.000000   0.000000   0.000000   0.000000   0.000000
    15  H   -0.020203   0.000000   0.000000   0.000000   0.000000   0.000000
    16  H   -0.000002   0.001298  -0.000186  -0.001064  -0.000004   0.000013
    17  H    0.000000   0.002369  -0.000199  -0.002273   0.000011  -0.000004
    18  H   -0.002085   0.000000   0.000000   0.000000   0.000000   0.000000
    19  H   -0.001687   0.000000   0.000000   0.000000   0.000000   0.000000
    20  H   -0.002152   0.000000   0.000000   0.000000   0.000000   0.000000
    21  H    0.002657   0.000000   0.000000   0.000000   0.000000   0.000000
    22  H    0.000000   0.000000   0.000000   0.000000   0.000000   0.000000
    23  H   -0.000002   0.000000   0.000000   0.000000   0.000000   0.000000
    24  H    0.000049   0.000000   0.000000   0.000000   0.000000   0.000000
    25  H    0.428538   0.000000   0.000000   0.000000   0.000000   0.000000
    26  N    0.000000   7.374970   0.207871   0.217691  -0.048771  -0.044865
    27  C    0.000000   0.207871   4.969306  -0.044252   0.404254   0.400528
    28  C    0.000000   0.217691  -0.044252   4.959770   0.000257  -0.004845
    29  H    0.000000  -0.048771   0.404254   0.000257   0.519655  -0.036712
    30  H    0.000000  -0.044865   0.400528  -0.004845  -0.036712   0.524661
    31  H    0.000000  -0.030513   0.398208   0.003157  -0.023117  -0.021690
    32  H    0.000000  -0.037885  -0.004984   0.403741  -0.001329   0.002892
    33  H    0.000000  -0.049035   0.001342   0.400174   0.002263  -0.000359
    34  H    0.000000  -0.038951   0.003194   0.400797  -0.000134   0.000137
             31         32         33         34
     1  N   -0.000010  -0.000002  -0.000013   0.000132
     2  C    0.000509  -0.000006  -0.000815  -0.001277
     3  C   -0.004194   0.002383  -0.000830  -0.004683
     4  O    0.008893  -0.000046   0.000045   0.000029
     5  C   -0.000003   0.000000   0.000000  -0.000005
     6  C    0.000000   0.000000   0.000000   0.000000
     7  C   -0.000003   0.000000   0.000051  -0.000011
     8  N    0.000000   0.000000   0.000000   0.000000
     9  O    0.000000   0.000000   0.000095   0.000000
    10  C    0.000000   0.000000   0.000000   0.000000
    11  C    0.000000   0.000000   0.000000   0.000000
    12  H    0.000000   0.000000   0.000000   0.000000
    13  H    0.000005   0.000000  -0.000001   0.000005
    14  H    0.000000   0.000000   0.000000   0.000000
    15  H    0.000000   0.000000   0.000000   0.000000
    16  H   -0.000014   0.000009  -0.000040   0.000627
    17  H   -0.000013   0.000198   0.000572  -0.003246
    18  H    0.000000   0.000000   0.000000   0.000000
    19  H    0.000000   0.000000   0.000000   0.000000
    20  H    0.000000   0.000000   0.000000   0.000000
    21  H    0.000000   0.000000   0.000000   0.000000
    22  H    0.000000   0.000000   0.000000   0.000000
    23  H    0.000000   0.000000   0.000000   0.000000
    24  H    0.000000   0.000000   0.000000   0.000000
    25  H    0.000000   0.000000   0.000000   0.000000
    26  N   -0.030513  -0.037885  -0.049035  -0.038951
    27  C    0.398208  -0.004984   0.001342   0.003194
    28  C    0.003157   0.403741   0.400174   0.400797
    29  H   -0.023117  -0.001329   0.002263  -0.000134
    30  H   -0.021690   0.002892  -0.000359   0.000137
    31  H    0.435453   0.000172  -0.000151  -0.000092
    32  H    0.000172   0.489161  -0.030689  -0.023809
    33  H   -0.000151  -0.030689   0.510898  -0.032753
    34  H   -0.000092  -0.023809  -0.032753   0.524731
 Mulliken atomic charges:
              1
     1  N   -0.669578
     2  C   -0.242309
     3  C    0.798467
     4  O   -0.634957
     5  C   -0.119674
     6  C   -0.349693
     7  C    0.771016
     8  N   -0.855986
     9  O   -0.582046
    10  C   -0.602104
    11  C   -0.220231
    12  H    0.208120
    13  H    0.226054
    14  H    0.197339
    15  H    0.259952
    16  H    0.186334
    17  H    0.257538
    18  H    0.464695
    19  H    0.470658
    20  H    0.199149
    21  H    0.464167
    22  H    0.243461
    23  H    0.216725
    24  H    0.154898
    25  H    0.258432
    26  N   -0.665795
    27  C   -0.302409
    28  C   -0.301629
    29  H    0.184481
    30  H    0.176771
    31  H    0.233404
    32  H    0.200195
    33  H    0.199247
    34  H    0.175310
 Sum of Mulliken charges=   1.00000
 Atomic charges with hydrogens summed into heavy atoms:
              1
     1  N   -0.669578
     2  C    0.201563
     3  C    0.798467
     4  O   -0.634957
     5  C    0.314500
     6  C    0.046795
     7  C    0.771016
     8  N    0.543534
     9  O   -0.582046
    10  C    0.012979
    11  C    0.298153
    12  H    0.000000
    13  H    0.000000
    14  H    0.000000
    15  H    0.000000
    16  H    0.000000
    17  H    0.000000
    18  H    0.000000
    19  H    0.000000
    20  H    0.000000
    21  H    0.000000
    22  H    0.000000
    23  H    0.000000
    24  H    0.000000
    25  H    0.000000
    26  N   -0.665795
    27  C    0.292246
    28  C    0.273123
    29  H    0.000000
    30  H    0.000000
    31  H    0.000000
    32  H    0.000000
    33  H    0.000000
    34  H    0.000000
 Sum of Mulliken charges=   1.00000
 Electronic spatial extent (au):  <R**2>=  4038.7870
 Charge=     1.0000 electrons
 Dipole moment (field-independent basis, Debye):
    X=   -20.0366    Y=    -8.6196    Z=    -2.5976  Tot=    21.9661
 Quadrupole moment (field-independent basis, Debye-Ang):
   XX=    30.7958   YY=   -72.4583   ZZ=   -83.0354
   XY=    20.7278   XZ=     1.0287   YZ=     7.2550
 Traceless Quadrupole moment (field-independent basis, Debye-Ang):
   XX=    72.3618   YY=   -30.8923   ZZ=   -41.4694
   XY=    20.7278   XZ=     1.0287   YZ=     7.2550
 Octapole moment (field-independent basis, Debye-Ang**2):
  XXX=  -455.3851  YYY=   -32.9665  ZZZ=    -8.7350  XYY=   -78.3458
  XXY=  -175.7448  XXZ=   -33.3608  XZZ=   -18.0589  YZZ=    -9.0506
  YYZ=     6.0034  XYZ=    -5.4747
 Hexadecapole moment (field-independent basis, Debye-Ang**3):
 XXXX=  -728.7582 YYYY= -1036.4741 ZZZZ=  -432.3082 XXXY=   726.1224
 XXXZ=   156.9741 YYYX=   115.8683 YYYZ=    33.3072 ZZZX=     4.1699
 ZZZY=     9.6826 XXYY=  -473.9265 XXZZ=  -575.9969 YYZZ=  -244.9577
 XXYZ=    43.1568 YYXZ=    29.0703 ZZXY=    25.7978
 N-N= 9.782883229281D+02 E-N=-3.499771290095D+03  KE= 6.644250525882D+02

 Test job not archived.
 1\1\GINC-OGLETHORPE\FOpt\RHF\6-31G(d)\C9H20N3O2(1+)\BUTTER\28-Jun-2010
 \0\\# HF/6-31G(d) Opt SCF=Tight MaxDisk=5000Mb Test\\scan rotamers\\1,
 1\N,2.4400774944,10.7122415115,10.6515789572\C,1.9794831554,9.40695956
 71,10.2265708779\C,1.9875616163,8.4149513362,11.3988446764\O,2.0505770
 314,8.847037178,12.5226975232\C,1.5101279226,11.5253117215,11.40176542
 18\C,0.796550935,12.5453183408,10.4977417617\C,3.8093453537,10.8381300
 447,10.7706099815\N,-0.9116695974,14.361774376,10.3914510757\O,4.53537
 36462,9.9804525717,10.3629634181\C,4.369605725,12.0936325616,11.403118
 2511\C,-0.2158578884,13.3580831392,11.2930114926\H,2.0169372496,12.040
 5429327,12.2041898311\H,0.786932938,10.8782663117,11.8775648396\H,0.29
 52368173,12.0197257028,9.689520556\H,-0.9980131152,12.7451828175,11.71
 72868865\H,0.9649320045,9.4894179384,9.8479898582\H,2.6049946962,9.072
 0430821,9.4183739537\H,-0.2495842553,15.0026903199,9.9752214986\H,-1.5
 925230115,14.9146505043,10.8951830802\H,1.5318821549,13.2050713219,10.
 0463949618\H,-1.3970566826,13.9008259962,9.6336799937\H,5.4122282005,1
 2.1560837386,11.1309988603\H,4.3022947364,12.025094441,12.4840173539\H
 ,3.8610614259,12.9953671896,11.0816894558\H,0.2437414584,13.9359723929
 ,12.0819454933\N,1.8631241456,7.1060615007,11.1082567041\C,1.965163720
 6,6.1325136226,12.1856349303\C,1.9561267675,6.5719745678,9.7599032677\
 H,2.9307071133,5.6369694677,12.1635311288\H,1.1883133389,5.385672449,1
 2.0734296105\H,1.8479305587,6.6317029657,13.1314207282\H,1.5158874647,
 5.5847581559,9.7540914386\H,2.9854018177,6.4888667165,9.4242363566\H,1
 .402105062,7.1736535162,9.0530857751\\Version=EM64M-G03RevE.01\State=1
 -A\HF=-665.3240858\RMSD=6.491e-09\RMSF=1.151e-05\Thermal=0.\Dipole=-5.
 4991649,6.5149306,-1.4147198\PG=C01 [X(C9H20N3O2)]\\@


 A MATHEMATICIAN IS A MACHINE FOR TURNING COFFEE INTO THEOREMS.
     -- QUOTED BY PAUL ERDOS
 Job cpu time:  0 days  2 hours 19 minutes 48.4 seconds.
 File lengths (MBytes):  RWF=     53 Int=      0 D2E=      0 Chk=     10 Scr=      1
 Normal termination of Gaussian 03 at Mon Jun 28 16:19:27 2010.
