 Entering Gaussian System, Link 0=g03
 Input=ornithine.com
 Output=ornithine.log
 Initial command:
 /opt/g03/g03/l1.exe /scr/APPS_SCRDIR/Gau-25037.inp -scrdir=/scr/APPS_SCRDIR/
 Entering Link 1 = /opt/g03/g03/l1.exe PID=     25038.
  
 Copyright (c) 1988,1990,1992,1993,1995,1998,2003,2004,2007, Gaussian, Inc.
                  All Rights Reserved.
  
 This is the Gaussian(R) 03 program.  It is based on the
 the Gaussian(R) 98 system (copyright 1998, Gaussian, Inc.),
 the Gaussian(R) 94 system (copyright 1995, Gaussian, Inc.),
 the Gaussian 92(TM) system (copyright 1992, Gaussian, Inc.),
 the Gaussian 90(TM) system (copyright 1990, Gaussian, Inc.),
 the Gaussian 88(TM) system (copyright 1988, Gaussian, Inc.),
 the Gaussian 86(TM) system (copyright 1986, Carnegie Mellon
 University), and the Gaussian 82(TM) system (copyright 1983,
 Carnegie Mellon University). Gaussian is a federally registered
 trademark of Gaussian, Inc.
  
 This software contains proprietary and confidential information,
 including trade secrets, belonging to Gaussian, Inc.
  
 This software is provided under written license and may be
 used, copied, transmitted, or stored only in accord with that
 written license.
  
 The following legend is applicable only to US Government
 contracts under FAR:
  
                    RESTRICTED RIGHTS LEGEND
  
 Use, reproduction and disclosure by the US Government is
 subject to restrictions as set forth in subparagraphs (a)
 and (c) of the Commercial Computer Software - Restricted
 Rights clause in FAR 52.227-19.
  
 Gaussian, Inc.
 340 Quinnipiac St., Bldg. 40, Wallingford CT 06492
  
  
 ---------------------------------------------------------------
 Warning -- This program may not be used in any manner that
 competes with the business of Gaussian, Inc. or will provide
 assistance to any competitor of Gaussian, Inc.  The licensee
 of this program is prohibited from giving any competitor of
 Gaussian, Inc. access to this program.  By using this program,
 the user acknowledges that Gaussian, Inc. is engaged in the
 business of creating and licensing software in the field of
 computational chemistry and represents and warrants to the
 licensee that it is not a competitor of Gaussian, Inc. and that
 it will not use this program in any manner prohibited above.
 ---------------------------------------------------------------
  

 Cite this work as:
 Gaussian 03, Revision E.01,
 M. J. Frisch, G. W. Trucks, H. B. Schlegel, G. E. Scuseria, 
 M. A. Robb, J. R. Cheeseman, J. A. Montgomery, Jr., T. Vreven, 
 K. N. Kudin, J. C. Burant, J. M. Millam, S. S. Iyengar, J. Tomasi, 
 V. Barone, B. Mennucci, M. Cossi, G. Scalmani, N. Rega, 
 G. A. Petersson, H. Nakatsuji, M. Hada, M. Ehara, K. Toyota, 
 R. Fukuda, J. Hasegawa, M. Ishida, T. Nakajima, Y. Honda, O. Kitao, 
 H. Nakai, M. Klene, X. Li, J. E. Knox, H. P. Hratchian, J. B. Cross, 
 V. Bakken, C. Adamo, J. Jaramillo, R. Gomperts, R. E. Stratmann, 
 O. Yazyev, A. J. Austin, R. Cammi, C. Pomelli, J. W. Ochterski, 
 P. Y. Ayala, K. Morokuma, G. A. Voth, P. Salvador, J. J. Dannenberg, 
 V. G. Zakrzewski, S. Dapprich, A. D. Daniels, M. C. Strain, 
 O. Farkas, D. K. Malick, A. D. Rabuck, K. Raghavachari, 
 J. B. Foresman, J. V. Ortiz, Q. Cui, A. G. Baboul, S. Clifford, 
 J. Cioslowski, B. B. Stefanov, G. Liu, A. Liashenko, P. Piskorz, 
 I. Komaromi, R. L. Martin, D. J. Fox, T. Keith, M. A. Al-Laham, 
 C. Y. Peng, A. Nanayakkara, M. Challacombe, P. M. W. Gill, 
 B. Johnson, W. Chen, M. W. Wong, C. Gonzalez, and J. A. Pople, 
 Gaussian, Inc., Wallingford CT, 2004.
 
 ******************************************
 Gaussian 03:  IA64L-G03RevE.01 11-Sep-2007
                22-Sep-2008 
 ******************************************
 %Chk=stage02_ace_nme_res_ordered_pdbs/ornithine.chk
 Default route:  MaxDisk=4GB
 ---------------------------------------------
 # HF/6-31G(d) Opt=ModRedundant SCF=Tight Test
 ---------------------------------------------
 1/18=120,38=1/1,3;
 2/9=110,17=6,18=5,40=1/2;
 3/5=1,6=6,7=1,11=9,16=1,25=1,30=1/1,2,3;
 4//1;
 5/5=2,32=2,38=5/2;
 6/7=2,8=2,9=2,10=2,28=1/1;
 7//1,2,3,16;
 1/18=20/3(3);
 2/9=110/2;
 6/7=2,8=2,9=2,10=2,19=2,28=1/1;
 99//99;
 2/9=110/2;
 3/5=1,6=6,7=1,11=9,16=1,25=1,30=1/1,2,3;
 4/5=5,16=3/1;
 5/5=2,32=2,38=5/2;
 7//1,2,3,16;
 1/18=20/3(-5);
 2/9=110/2;
 6/7=2,8=2,9=2,10=2,19=2,28=1/1;
 99/9=1/99;
 -------------
 scan rotamers
 -------------
 Symbolic Z-matrix:
 Charge =  1 Multiplicity = 1
 C                     0.984     0.045    -0.578 
 O                     1.815    -0.721    -1.083 
 C                    -0.445    -0.396    -0.349 
 H                    -0.468    -1.251     0.313 
 H                    -1.013     0.407     0.098 
 H                    -0.904    -0.668    -1.288 
 N                     4.937     2.266     0.684 
 C                     5.341     3.324     1.592 
 H                     5.534     1.511     0.316 
 H                     4.689     4.177     1.478 
 H                     5.286     2.977     2.614 
 H                     6.355     3.627     1.379 
 N                     1.392     1.405    -0.195 
 C                     2.806     1.518    -0.539 
 C                     3.512     2.478     0.39 
 O                     2.929     3.435     0.912 
 C                     2.895     1.945    -2.014 
 C                     2.214     0.926    -2.946 
 N                     1.68      0.434    -5.295 
 C                     2.334     1.404    -4.405 
 H                     0.77      2.167     0.251 
 H                     3.283     0.529    -0.413 
 H                     2.409     2.923    -2.195 
 H                     3.943     2.035    -2.355 
 H                     2.698    -0.045    -2.84 
 H                     1.461    -0.405    -4.777 
 H                     1.161     0.837    -2.679 
 H                     2.3       0.206    -6.059 
 H                     3.387     1.492    -4.674 
 H                     1.85      2.375    -4.509 
 H                     0.828     0.835    -5.661 
 
 The following ModRedundant input section has been read:
 D    1   13   14   15 -150.0 F                                                
 D   13   14   15    7 150.00 F                                                
 Iteration  1 RMS(Cart)=  0.00041078 RMS(Int)=  0.00012336
 Iteration  2 RMS(Cart)=  0.00000010 RMS(Int)=  0.00012336
 Iteration  1 RMS(Cart)=  0.00022948 RMS(Int)=  0.00007757
 Iteration  2 RMS(Cart)=  0.00013084 RMS(Int)=  0.00008591
 Iteration  3 RMS(Cart)=  0.00007637 RMS(Int)=  0.00009835
 Iteration  4 RMS(Cart)=  0.00004570 RMS(Int)=  0.00010838
 Iteration  5 RMS(Cart)=  0.00002803 RMS(Int)=  0.00011556
 Iteration  6 RMS(Cart)=  0.00001757 RMS(Int)=  0.00012051
 Iteration  7 RMS(Cart)=  0.00001121 RMS(Int)=  0.00012387
 Iteration  8 RMS(Cart)=  0.00000726 RMS(Int)=  0.00012614
 Iteration  9 RMS(Cart)=  0.00000475 RMS(Int)=  0.00012767
 Iteration 10 RMS(Cart)=  0.00000313 RMS(Int)=  0.00012870
 Iteration 11 RMS(Cart)=  0.00000208 RMS(Int)=  0.00012939
 Iteration 12 RMS(Cart)=  0.00000138 RMS(Int)=  0.00012985
 Iteration 13 RMS(Cart)=  0.00000092 RMS(Int)=  0.00013017

 GradGradGradGradGradGradGradGradGradGradGradGradGradGradGradGradGradGrad
 Berny optimization.
 Initialization pass.
                           ----------------------------
                           !    Initial Parameters    !
                           ! (Angstroms and Degrees)  !
 --------------------------                            --------------------------
 ! Name  Definition              Value          Derivative Info.                !
 --------------------------------------------------------------------------------
 ! R1    R(1,2)                  1.2379         estimate D2E/DX2                !
 ! R2    R(1,3)                  1.5129         estimate D2E/DX2                !
 ! R3    R(1,13)                 1.4707         estimate D2E/DX2                !
 ! R4    R(2,22)                 2.0412         estimate D2E/DX2                !
 ! R5    R(3,4)                  1.0816         estimate D2E/DX2                !
 ! R6    R(3,5)                  1.0804         estimate D2E/DX2                !
 ! R7    R(3,6)                  1.08           estimate D2E/DX2                !
 ! R8    R(7,8)                  1.4516         estimate D2E/DX2                !
 ! R9    R(7,9)                  1.0305         estimate D2E/DX2                !
 ! R10   R(7,15)                 1.4704         estimate D2E/DX2                !
 ! R11   R(8,10)                 1.0797         estimate D2E/DX2                !
 ! R12   R(8,11)                 1.0807         estimate D2E/DX2                !
 ! R13   R(8,12)                 1.0795         estimate D2E/DX2                !
 ! R14   R(13,14)                1.4596         estimate D2E/DX2                !
 ! R15   R(13,21)                1.08           estimate D2E/DX2                !
 ! R16   R(14,15)                1.511          estimate D2E/DX2                !
 ! R17   R(14,17)                1.5381         estimate D2E/DX2                !
 ! R18   R(14,22)                1.1052         estimate D2E/DX2                !
 ! R19   R(15,16)                1.2362         estimate D2E/DX2                !
 ! R20   R(17,18)                1.5397         estimate D2E/DX2                !
 ! R21   R(17,23)                1.107          estimate D2E/DX2                !
 ! R22   R(17,24)                1.1058         estimate D2E/DX2                !
 ! R23   R(18,20)                1.54           estimate D2E/DX2                !
 ! R24   R(18,25)                1.0901         estimate D2E/DX2                !
 ! R25   R(18,27)                1.09           estimate D2E/DX2                !
 ! R26   R(19,20)                1.4699         estimate D2E/DX2                !
 ! R27   R(19,26)                1.0101         estimate D2E/DX2                !
 ! R28   R(19,28)                1.01           estimate D2E/DX2                !
 ! R29   R(19,31)                1.0103         estimate D2E/DX2                !
 ! R30   R(20,29)                1.0904         estimate D2E/DX2                !
 ! R31   R(20,30)                1.0899         estimate D2E/DX2                !
 ! A1    A(2,1,3)              121.025          estimate D2E/DX2                !
 ! A2    A(2,1,13)             119.4931         estimate D2E/DX2                !
 ! A3    A(3,1,13)             119.4819         estimate D2E/DX2                !
 ! A4    A(1,3,4)              110.0692         estimate D2E/DX2                !
 ! A5    A(1,3,5)              110.0321         estimate D2E/DX2                !
 ! A6    A(1,3,6)              110.0741         estimate D2E/DX2                !
 ! A7    A(4,3,5)              108.8525         estimate D2E/DX2                !
 ! A8    A(4,3,6)              108.9071         estimate D2E/DX2                !
 ! A9    A(5,3,6)              108.8733         estimate D2E/DX2                !
 ! A10   A(8,7,9)              126.5962         estimate D2E/DX2                !
 ! A11   A(8,7,15)             106.841          estimate D2E/DX2                !
 ! A12   A(9,7,15)             126.5628         estimate D2E/DX2                !
 ! A13   A(7,8,10)             109.9817         estimate D2E/DX2                !
 ! A14   A(7,8,11)             110.0816         estimate D2E/DX2                !
 ! A15   A(7,8,12)             110.0342         estimate D2E/DX2                !
 ! A16   A(10,8,11)            108.8319         estimate D2E/DX2                !
 ! A17   A(10,8,12)            108.9441         estimate D2E/DX2                !
 ! A18   A(11,8,12)            108.9364         estimate D2E/DX2                !
 ! A19   A(1,13,14)            106.2059         estimate D2E/DX2                !
 ! A20   A(1,13,21)            126.8834         estimate D2E/DX2                !
 ! A21   A(14,13,21)           126.9107         estimate D2E/DX2                !
 ! A22   A(13,14,15)           110.8989         estimate D2E/DX2                !
 ! A23   A(13,14,17)           107.6578         estimate D2E/DX2                !
 ! A24   A(13,14,22)           108.7905         estimate D2E/DX2                !
 ! A25   A(15,14,17)           112.7706         estimate D2E/DX2                !
 ! A26   A(15,14,22)           107.2248         estimate D2E/DX2                !
 ! A27   A(17,14,22)           109.4384         estimate D2E/DX2                !
 ! A28   A(7,15,14)            118.9572         estimate D2E/DX2                !
 ! A29   A(7,15,16)            118.9623         estimate D2E/DX2                !
 ! A30   A(14,15,16)           122.0805         estimate D2E/DX2                !
 ! A31   A(14,17,18)           111.786          estimate D2E/DX2                !
 ! A32   A(14,17,23)           112.1263         estimate D2E/DX2                !
 ! A33   A(14,17,24)           111.9109         estimate D2E/DX2                !
 ! A34   A(18,17,23)           106.9503         estimate D2E/DX2                !
 ! A35   A(18,17,24)           106.6417         estimate D2E/DX2                !
 ! A36   A(23,17,24)           107.0835         estimate D2E/DX2                !
 ! A37   A(17,18,20)           109.4866         estimate D2E/DX2                !
 ! A38   A(17,18,25)           109.5279         estimate D2E/DX2                !
 ! A39   A(17,18,27)           109.4541         estimate D2E/DX2                !
 ! A40   A(20,18,25)           109.5121         estimate D2E/DX2                !
 ! A41   A(20,18,27)           109.433          estimate D2E/DX2                !
 ! A42   A(25,18,27)           109.4136         estimate D2E/DX2                !
 ! A43   A(20,19,26)           109.5175         estimate D2E/DX2                !
 ! A44   A(20,19,28)           109.5026         estimate D2E/DX2                !
 ! A45   A(20,19,31)           109.4288         estimate D2E/DX2                !
 ! A46   A(26,19,28)           109.4827         estimate D2E/DX2                !
 ! A47   A(26,19,31)           109.4292         estimate D2E/DX2                !
 ! A48   A(28,19,31)           109.4665         estimate D2E/DX2                !
 ! A49   A(18,20,19)           109.5198         estimate D2E/DX2                !
 ! A50   A(18,20,29)           109.5137         estimate D2E/DX2                !
 ! A51   A(18,20,30)           109.41           estimate D2E/DX2                !
 ! A52   A(19,20,29)           109.4846         estimate D2E/DX2                !
 ! A53   A(19,20,30)           109.4234         estimate D2E/DX2                !
 ! A54   A(29,20,30)           109.4758         estimate D2E/DX2                !
 ! D1    D(2,1,3,4)             60.0305         estimate D2E/DX2                !
 ! D2    D(2,1,3,5)            179.9895         estimate D2E/DX2                !
 ! D3    D(2,1,3,6)            -60.0226         estimate D2E/DX2                !
 ! D4    D(13,1,3,4)          -119.9866         estimate D2E/DX2                !
 ! D5    D(13,1,3,5)            -0.0276         estimate D2E/DX2                !
 ! D6    D(13,1,3,6)           119.9603         estimate D2E/DX2                !
 ! D7    D(2,1,13,14)           -0.0493         estimate D2E/DX2                !
 ! D8    D(2,1,13,21)          179.9951         estimate D2E/DX2                !
 ! D9    D(3,1,13,14)          179.9676         estimate D2E/DX2                !
 ! D10   D(3,1,13,21)            0.0119         estimate D2E/DX2                !
 ! D11   D(9,7,8,10)           155.6267         estimate D2E/DX2                !
 ! D12   D(9,7,8,11)           -84.4637         estimate D2E/DX2                !
 ! D13   D(9,7,8,12)            35.6083         estimate D2E/DX2                !
 ! D14   D(15,7,8,10)          -24.3823         estimate D2E/DX2                !
 ! D15   D(15,7,8,11)           95.5273         estimate D2E/DX2                !
 ! D16   D(15,7,8,12)         -144.4007         estimate D2E/DX2                !
 ! D17   D(8,7,15,14)         -179.9352         estimate D2E/DX2                !
 ! D18   D(8,7,15,16)           -0.0091         estimate D2E/DX2                !
 ! D19   D(9,7,15,14)            0.0557         estimate D2E/DX2                !
 ! D20   D(9,7,15,16)          179.9819         estimate D2E/DX2                !
 ! D21   D(1,13,14,15)        -150.0003         Frozen                          !
 ! D22   D(1,13,14,17)          86.197          estimate D2E/DX2                !
 ! D23   D(1,13,14,22)         -32.307          estimate D2E/DX2                !
 ! D24   D(21,13,14,15)         29.9554         estimate D2E/DX2                !
 ! D25   D(21,13,14,17)        -93.8474         estimate D2E/DX2                !
 ! D26   D(21,13,14,22)        147.6487         estimate D2E/DX2                !
 ! D27   D(13,14,15,7)         149.9998         Frozen                          !
 ! D28   D(13,14,15,16)        -29.924          estimate D2E/DX2                !
 ! D29   D(17,14,15,7)         -89.1751         estimate D2E/DX2                !
 ! D30   D(17,14,15,16)         90.9011         estimate D2E/DX2                !
 ! D31   D(22,14,15,7)          31.356          estimate D2E/DX2                !
 ! D32   D(22,14,15,16)       -148.5678         estimate D2E/DX2                !
 ! D33   D(13,14,17,18)        -59.4495         estimate D2E/DX2                !
 ! D34   D(13,14,17,23)         60.6456         estimate D2E/DX2                !
 ! D35   D(13,14,17,24)       -178.9999         estimate D2E/DX2                !
 ! D36   D(15,14,17,18)        177.8925         estimate D2E/DX2                !
 ! D37   D(15,14,17,23)        -62.0123         estimate D2E/DX2                !
 ! D38   D(15,14,17,24)         58.3421         estimate D2E/DX2                !
 ! D39   D(22,14,17,18)         58.6374         estimate D2E/DX2                !
 ! D40   D(22,14,17,23)        178.7325         estimate D2E/DX2                !
 ! D41   D(22,14,17,24)        -60.913          estimate D2E/DX2                !
 ! D42   D(14,17,18,20)       -179.9951         estimate D2E/DX2                !
 ! D43   D(14,17,18,25)        -59.9009         estimate D2E/DX2                !
 ! D44   D(14,17,18,27)         60.0527         estimate D2E/DX2                !
 ! D45   D(23,17,18,20)         56.9214         estimate D2E/DX2                !
 ! D46   D(23,17,18,25)        177.0157         estimate D2E/DX2                !
 ! D47   D(23,17,18,27)        -63.0307         estimate D2E/DX2                !
 ! D48   D(24,17,18,20)        -57.3861         estimate D2E/DX2                !
 ! D49   D(24,17,18,25)         62.7082         estimate D2E/DX2                !
 ! D50   D(24,17,18,27)       -177.3382         estimate D2E/DX2                !
 ! D51   D(17,18,20,19)       -179.8052         estimate D2E/DX2                !
 ! D52   D(17,18,20,29)         60.1226         estimate D2E/DX2                !
 ! D53   D(17,18,20,30)        -59.8715         estimate D2E/DX2                !
 ! D54   D(25,18,20,19)         60.0909         estimate D2E/DX2                !
 ! D55   D(25,18,20,29)        -59.9813         estimate D2E/DX2                !
 ! D56   D(25,18,20,30)       -179.9755         estimate D2E/DX2                !
 ! D57   D(27,18,20,19)        -59.8401         estimate D2E/DX2                !
 ! D58   D(27,18,20,29)       -179.9123         estimate D2E/DX2                !
 ! D59   D(27,18,20,30)         60.0935         estimate D2E/DX2                !
 ! D60   D(26,19,20,18)        -10.9384         estimate D2E/DX2                !
 ! D61   D(26,19,20,29)        109.1517         estimate D2E/DX2                !
 ! D62   D(26,19,20,30)       -130.8638         estimate D2E/DX2                !
 ! D63   D(28,19,20,18)       -131.0001         estimate D2E/DX2                !
 ! D64   D(28,19,20,29)        -10.91           estimate D2E/DX2                !
 ! D65   D(28,19,20,30)        109.0745         estimate D2E/DX2                !
 ! D66   D(31,19,20,18)        109.0125         estimate D2E/DX2                !
 ! D67   D(31,19,20,29)       -130.8974         estimate D2E/DX2                !
 ! D68   D(31,19,20,30)        -10.9129         estimate D2E/DX2                !
 --------------------------------------------------------------------------------
 Trust Radius=3.00D-01 FncErr=1.00D-07 GrdErr=1.00D-07
 Number of steps in this run= 163 maximum allowed number of steps= 186.
 GradGradGradGradGradGradGradGradGradGradGradGradGradGradGradGradGradGrad

                          Input orientation:                          
 ---------------------------------------------------------------------
 Center     Atomic     Atomic              Coordinates (Angstroms)
 Number     Number      Type              X           Y           Z
 ---------------------------------------------------------------------
    1          6             0        0.984273    0.045152   -0.577478
    2          8             0        1.815314   -0.721215   -1.081856
    3          6             0       -0.444557   -0.395967   -0.347651
    4          1             0       -0.467176   -1.250255    0.315281
    5          1             0       -1.012655    0.407371    0.098617
    6          1             0       -0.903716   -0.669102   -1.286243
    7          7             0        4.936798    2.265844    0.684180
    8          6             0        5.340616    3.323246    1.592957
    9          1             0        5.533889    1.511127    0.315747
   10          1             0        4.688585    4.176288    1.479450
   11          1             0        5.285494    2.975546    2.614713
   12          1             0        6.354628    3.626446    1.380303
   13          7             0        1.391971    1.405704   -0.196031
   14          6             0        2.806054    1.518674   -0.539774
   15          6             0        3.511827    2.477967    0.390130
   16          8             0        2.928742    3.434670    0.912578
   17          6             0        2.894990    1.945426   -2.014850
   18          6             0        2.214022    0.926228   -2.946656
   19          7             0        1.679986    0.433795   -5.295557
   20          6             0        2.333956    1.403984   -4.405742
   21          1             0        0.769908    2.167819    0.249685
   22          1             0        3.283207    0.529781   -0.413565
   23          1             0        2.408931    2.923368   -2.196005
   24          1             0        3.942976    2.035426   -2.355893
   25          1             0        2.698079   -0.044727   -2.840502
   26          1             0        1.461047   -0.405129   -4.777407
   27          1             0        1.161034    0.837215   -2.679613
   28          1             0        2.299978    0.205698   -6.059535
   29          1             0        3.386944    1.491996   -4.674785
   30          1             0        1.849899    2.374939   -4.509895
   31          1             0        0.827954    0.834684   -5.661603
 ---------------------------------------------------------------------
                    Distance matrix (angstroms):
                    1          2          3          4          5
     1  C    0.000000
     2  O    1.237879   0.000000
     3  C    1.512932   2.398304   0.000000
     4  H    2.140514   2.727936   1.081572   0.000000
     5  H    2.139165   3.265675   1.080390   1.758469   0.000000
     6  H    2.139396   2.727199   1.079994   1.758746   1.757414
     7  N    4.705922   4.667447   6.091707   6.457706   6.260414
     8  C    5.868084   5.995002   7.146099   7.501987   7.148386
     9  H    4.862709   4.556803   6.310224   6.605908   6.642489
    10  H    5.917699   6.229086   7.112873   7.575257   6.972486
    11  H    6.105554   6.274776   7.278474   7.499199   7.252099
    12  H    6.745316   6.750538   8.086690   8.453017   8.141377
    13  N    1.470653   2.342582   2.577177   3.282070   2.620250
    14  C    2.343411   2.508490   3.777464   4.371741   4.028036
    15  C    3.639145   3.908921   4.945380   5.453228   4.984303
    16  O    4.182112   4.742243   5.257481   5.817005   5.036038
    17  C    3.054164   3.024426   4.406161   5.190958   4.701281
    18  C    2.810976   2.520023   3.946020   4.750383   4.467029
    19  N    4.784907   4.371228   5.448300   6.239218   6.028941
    20  C    4.280616   3.979155   5.237181   6.097490   5.699324
    21  H    2.288202   3.348491   2.899092   3.635644   2.509886
    22  H    2.355171   2.041155   3.841560   4.214869   4.328018
    23  H    3.596305   3.857031   4.751504   5.656649   4.827295
    24  H    3.984705   3.707989   5.403254   6.113944   5.764847
    25  H    2.840157   2.080804   4.026642   4.629374   4.755246
    26  H    4.250820   3.725924   4.822256   5.510695   5.527655
    27  H    2.253349   2.325857   3.088156   3.997247   3.553625
    28  H    5.640018   5.086389   6.365540   7.100368   6.995502
    29  H    4.965291   4.503050   6.080205   6.875678   6.581660
    30  H    4.652002   4.619396   5.501521   6.464766   5.770955
    31  H    5.147439   4.936576   5.601060   6.461229   6.062225
                    6          7          8          9         10
     6  H    0.000000
     7  N    6.827011   0.000000
     8  C    7.951121   1.451566   0.000000
     9  H    6.983018   1.030465   2.225398   0.000000
    10  H    7.899411   2.084193   1.079680   3.028502   0.000000
    11  H    8.173570   2.086198   1.080703   2.737054   1.756959
    12  H    8.845664   2.084723   1.079525   2.506285   1.757230
    13  N    3.280787   3.752388   4.740173   4.174748   4.620718
    14  C    4.371039   2.568345   3.772138   2.858856   3.831983
    15  C    5.675499   1.470376   2.346436   2.242554   2.335738
    16  O    6.030216   2.334654   2.508479   3.292874   1.992081
    17  C    4.668704   3.399472   4.571186   3.547405   4.517063
    18  C    3.875867   4.731918   6.010771   4.691151   6.023020
    19  N    4.895559   7.051276   8.318700   6.892021   8.304134
    20  C    4.950907   5.781426   6.979109   5.704692   6.918484
    21  H    3.634311   4.190628   4.902118   4.809483   4.571903
    22  H    4.441758   2.636915   4.007806   2.561349   4.342304
    23  H    4.970628   3.888176   4.807381   4.250727   4.502843
    24  H    5.652349   3.206684   4.382385   3.153341   4.455231
    25  H    3.972216   4.772210   6.162938   4.519338   6.359329
    26  H    4.224928   7.003133   8.338667   6.797080   8.399681
    27  H    2.910956   5.254757   6.473338   5.343051   6.394593
    28  H    5.814916   7.528261   8.804841   7.266811   8.849142
    29  H    5.878974   5.631998   6.815783   5.432785   6.839174
    30  H    5.219245   6.043117   7.094307   6.132274   6.868424
    31  H    4.940023   7.694139   8.898635   7.637547   8.778692
                   11         12         13         14         15
    11  H    0.000000
    12  H    1.757978   0.000000
    13  N    5.052149   5.660786   0.000000
    14  C    4.268593   4.552118   1.459642   0.000000
    15  C    2.888296   3.221951   2.446859   1.510985   0.000000
    16  O    2.943186   3.462982   2.776218   2.407368   1.236213
    17  C    5.311168   5.130496   2.420428   1.538140   2.539294
    18  C    6.675513   6.569504   2.910602   2.548446   3.902093
    19  N    9.057183   8.752852   5.199301   5.006243   6.313582
    20  C    7.776128   7.388062   4.313815   3.896375   5.053830
    21  H    5.161037   5.881751   1.080020   2.278272   2.762975
    22  H    4.377372   4.716029   2.095552   1.105221   2.119816
    23  H    5.605385   5.371482   2.708765   2.207707   2.846551
    24  H    5.233842   4.722984   3.401350   2.204068   2.814671
    25  H    6.751010   6.683043   3.286776   2.783745   4.178894
    26  H    8.983251   8.838446   4.926753   4.844337   6.262697
    27  H    7.043686   7.157943   2.558259   2.783772   4.200191
    28  H    9.582689   9.137445   6.053525   5.696295   6.944779
    29  H    7.677382   7.072985   4.903734   4.175699   5.161501
    30  H    7.932470   7.520192   4.445058   4.172444   5.175216
    31  H    9.641077   9.376914   5.524188   5.532979   6.821072
                   16         17         18         19         20
    16  O    0.000000
    17  C    3.284634   0.000000
    18  C    4.657982   1.539723   0.000000
    19  N    7.007538   3.811077   2.458662   0.000000
    20  C    5.723808   2.514813   1.539989   1.469937   0.000000
    21  H    2.589383   3.113447   3.720700   5.880884   4.970180
    22  H    3.212893   2.172297   2.777927   5.139395   4.195567
    23  H    3.192948   1.106996   2.142437   4.041851   2.682739
    24  H    3.697224   1.105751   2.137429   4.040788   2.681332
    25  H    5.122990   2.163605   1.090107   2.700517   2.163636
    26  H    7.019552   3.900388   2.385609   1.010052   2.042791
    27  H    4.772358   2.162555   1.089963   2.697263   2.162520
    28  H    7.709213   4.442991   3.196336   1.009990   2.042566
    29  H    5.933174   2.742786   2.163855   2.102107   1.090373
    30  H    5.629400   2.738969   2.162190   2.100994   1.089914
    31  H    7.375168   4.336496   3.049672   1.010278   2.041894
                   21         22         23         24         25
    21  H    0.000000
    22  H    3.072416   0.000000
    23  H    3.039514   3.109776   0.000000
    24  H    4.107910   2.544582   1.779691   0.000000
    25  H    4.261744   2.561730   3.050995   2.472175   0.000000
    26  H    5.689410   4.820523   4.317524   4.240284   2.326314
    27  H    3.241029   3.119792   2.478539   3.046261   1.779386
    28  H    6.782130   5.740099   4.724877   4.445706   3.253209
    29  H    5.617474   4.369738   3.024845   2.445761   2.490110
    30  H    4.884965   4.715814   2.442822   3.022576   3.059586
    31  H    6.060028   5.801994   4.344245   4.698176   3.497047
                   26         27         28         29         30
    26  H    0.000000
    27  H    2.456454   0.000000
    28  H    1.649474   3.622138   0.000000
    29  H    2.705308   3.060086   2.180273   0.000000
    30  H    2.819848   2.487783   2.703620   1.780248   0.000000
    31  H    1.649165   3.000536   1.649494   2.820337   2.177886
                   31
    31  H    0.000000
 Stoichiometry    C8H18N3O2(1+)
 Framework group  C1[X(C8H18N3O2)]
 Deg. of freedom    87
 Full point group                 C1
 Largest Abelian subgroup         C1      NOp   1
 Largest concise Abelian subgroup C1      NOp   1
                         Standard orientation:                         
 ---------------------------------------------------------------------
 Center     Atomic     Atomic              Coordinates (Angstroms)
 Number     Number      Type              X           Y           Z
 ---------------------------------------------------------------------
    1          6             0       -0.822930    1.898470    0.243918
    2          8             0       -1.132720    1.355330    1.312268
    3          6             0       -1.513993    3.162907   -0.217162
    4          1             0       -1.367712    3.951529    0.508424
    5          1             0       -1.107629    3.481795   -1.166067
    6          1             0       -2.573059    2.985557   -0.332541
    7          7             0        2.970882   -0.819547    0.848130
    8          6             0        4.306409   -0.951386    0.294930
    9          1             0        2.658785   -1.128596    1.780300
   10          1             0        4.260614   -0.951193   -0.783778
   11          1             0        4.924988   -0.126206    0.617974
   12          1             0        4.754456   -1.875872    0.626522
   13          7             0        0.232990    1.305326   -0.590368
   14          6             0        0.692530    0.115386    0.119153
   15          6             0        2.148415   -0.160033   -0.176855
   16          8             0        2.670218    0.152833   -1.252987
   17          6             0       -0.227270   -1.050705   -0.280938
   18          6             0       -1.697634   -0.767782    0.077852
   19          7             0       -3.973600   -1.694028   -0.006238
   20          6             0       -2.569007   -1.965335   -0.344216
   21          1             0        0.595908    1.676379   -1.537498
   22          1             0        0.607791    0.294317    1.206497
   23          1             0       -0.193815   -1.253888   -1.368614
   24          1             0        0.049223   -1.989604    0.233558
   25          1             0       -1.787102   -0.613490    1.153269
   26          1             0       -4.026968   -0.874518    0.581778
   27          1             0       -2.033300    0.127321   -0.445731
   28          1             0       -4.361440   -2.486814    0.484832
   29          1             0       -2.235303   -2.861282    0.180031
   30          1             0       -2.477994   -2.118366   -1.419488
   31          1             0       -4.498440   -1.533770   -0.854484
 ---------------------------------------------------------------------
 Rotational constants (GHZ):      0.9949498      0.4353131      0.3393305
 Standard basis: 6-31G(d) (6D, 7F)
 There are   231 symmetry adapted basis functions of A   symmetry.
 Integral buffers will be    131072 words long.
 Raffenetti 1 integral format.
 Two-electron integral symmetry is turned on.
   231 basis functions,   436 primitive gaussians,   231 cartesian basis functions
    51 alpha electrons       51 beta electrons
       nuclear repulsion energy       863.4937681459 Hartrees.
 NAtoms=   31 NActive=   31 NUniq=   31 SFac= 7.50D-01 NAtFMM=   80 NAOKFM=F Big=F
 One-electron integrals computed using PRISM.
 NBasis=   231 RedAO= T  NBF=   231
 NBsUse=   231 1.00D-06 NBFU=   231
 Harris functional with IExCor=  205 diagonalized for initial guess.
 ExpMin= 1.61D-01 ExpMax= 5.48D+03 ExpMxC= 8.25D+02 IAcc=1 IRadAn=         1 AccDes= 1.00D-06
 HarFok:  IExCor= 205 AccDes= 1.00D-06 IRadAn=         1 IDoV=1
 ScaDFX=  1.000000  1.000000  1.000000  1.000000
 Initial guess orbital symmetries:
       Occupied  (A) (A) (A) (A) (A) (A) (A) (A) (A) (A) (A) (A)
                 (A) (A) (A) (A) (A) (A) (A) (A) (A) (A) (A) (A)
                 (A) (A) (A) (A) (A) (A) (A) (A) (A) (A) (A) (A)
                 (A) (A) (A) (A) (A) (A) (A) (A) (A) (A) (A) (A)
                 (A) (A) (A)
       Virtual   (A) (A) (A) (A) (A) (A) (A) (A) (A) (A) (A) (A)
                 (A) (A) (A) (A) (A) (A) (A) (A) (A) (A) (A) (A)
                 (A) (A) (A) (A) (A) (A) (A) (A) (A) (A) (A) (A)
                 (A) (A) (A) (A) (A) (A) (A) (A) (A) (A) (A) (A)
                 (A) (A) (A) (A) (A) (A) (A) (A) (A) (A) (A) (A)
                 (A) (A) (A) (A) (A) (A) (A) (A) (A) (A) (A) (A)
                 (A) (A) (A) (A) (A) (A) (A) (A) (A) (A) (A) (A)
                 (A) (A) (A) (A) (A) (A) (A) (A) (A) (A) (A) (A)
                 (A) (A) (A) (A) (A) (A) (A) (A) (A) (A) (A) (A)
                 (A) (A) (A) (A) (A) (A) (A) (A) (A) (A) (A) (A)
                 (A) (A) (A) (A) (A) (A) (A) (A) (A) (A) (A) (A)
                 (A) (A) (A) (A) (A) (A) (A) (A) (A) (A) (A) (A)
                 (A) (A) (A) (A) (A) (A) (A) (A) (A) (A) (A) (A)
                 (A) (A) (A) (A) (A) (A) (A) (A) (A) (A) (A) (A)
                 (A) (A) (A) (A) (A) (A) (A) (A) (A) (A) (A) (A)
 The electronic state of the initial guess is 1-A.
 Requested convergence on RMS density matrix=1.00D-08 within 128 cycles.
 Requested convergence on MAX density matrix=1.00D-06.
 Requested convergence on             energy=1.00D-06.
 No special actions if energy rises.
 Integral accuracy reduced to 1.0D-05 until final iterations.
 Initial convergence to 1.0D-05 achieved.  Increase integral accuracy.
 SCF Done:  E(RHF) =  -626.228552623     A.U. after   15 cycles
             Convg  =    0.7643D-08             -V/T =  2.0027
             S**2   =   0.0000

 **********************************************************************

            Population analysis using the SCF density.

 **********************************************************************

 Orbital symmetries:
       Occupied  (A) (A) (A) (A) (A) (A) (A) (A) (A) (A) (A) (A)
                 (A) (A) (A) (A) (A) (A) (A) (A) (A) (A) (A) (A)
                 (A) (A) (A) (A) (A) (A) (A) (A) (A) (A) (A) (A)
                 (A) (A) (A) (A) (A) (A) (A) (A) (A) (A) (A) (A)
                 (A) (A) (A)
       Virtual   (A) (A) (A) (A) (A) (A) (A) (A) (A) (A) (A) (A)
                 (A) (A) (A) (A) (A) (A) (A) (A) (A) (A) (A) (A)
                 (A) (A) (A) (A) (A) (A) (A) (A) (A) (A) (A) (A)
                 (A) (A) (A) (A) (A) (A) (A) (A) (A) (A) (A) (A)
                 (A) (A) (A) (A) (A) (A) (A) (A) (A) (A) (A) (A)
                 (A) (A) (A) (A) (A) (A) (A) (A) (A) (A) (A) (A)
                 (A) (A) (A) (A) (A) (A) (A) (A) (A) (A) (A) (A)
                 (A) (A) (A) (A) (A) (A) (A) (A) (A) (A) (A) (A)
                 (A) (A) (A) (A) (A) (A) (A) (A) (A) (A) (A) (A)
                 (A) (A) (A) (A) (A) (A) (A) (A) (A) (A) (A) (A)
                 (A) (A) (A) (A) (A) (A) (A) (A) (A) (A) (A) (A)
                 (A) (A) (A) (A) (A) (A) (A) (A) (A) (A) (A) (A)
                 (A) (A) (A) (A) (A) (A) (A) (A) (A) (A) (A) (A)
                 (A) (A) (A) (A) (A) (A) (A) (A) (A) (A) (A) (A)
                 (A) (A) (A) (A) (A) (A) (A) (A) (A) (A) (A) (A)
 The electronic state is 1-A.
 Alpha  occ. eigenvalues --  -20.65045 -20.63068 -15.89305 -15.70639 -15.67356
 Alpha  occ. eigenvalues --  -11.48412 -11.46156 -11.45853 -11.39186 -11.38306
 Alpha  occ. eigenvalues --  -11.36891 -11.34377 -11.31177  -1.52499  -1.49745
 Alpha  occ. eigenvalues --   -1.46964  -1.31841  -1.27952  -1.22915  -1.14797
 Alpha  occ. eigenvalues --   -1.10673  -1.05968  -1.00591  -0.98569  -0.97550
 Alpha  occ. eigenvalues --   -0.93402  -0.88609  -0.87135  -0.85053  -0.82136
 Alpha  occ. eigenvalues --   -0.81111  -0.77121  -0.75525  -0.74737  -0.71436
 Alpha  occ. eigenvalues --   -0.71040  -0.70008  -0.69345  -0.68215  -0.67311
 Alpha  occ. eigenvalues --   -0.66535  -0.65658  -0.63799  -0.62601  -0.61049
 Alpha  occ. eigenvalues --   -0.59777  -0.58347  -0.54064  -0.51470  -0.49700
 Alpha  occ. eigenvalues --   -0.46335
 Alpha virt. eigenvalues --   -0.01626   0.04133   0.05038   0.05622   0.08166
 Alpha virt. eigenvalues --    0.09060   0.11396   0.12734   0.13729   0.15195
 Alpha virt. eigenvalues --    0.17152   0.17737   0.19141   0.19924   0.20667
 Alpha virt. eigenvalues --    0.21383   0.22007   0.22209   0.24501   0.25099
 Alpha virt. eigenvalues --    0.25690   0.27467   0.27772   0.29364   0.29786
 Alpha virt. eigenvalues --    0.32808   0.34696   0.36024   0.39493   0.42646
 Alpha virt. eigenvalues --    0.46506   0.47774   0.54698   0.57552   0.57885
 Alpha virt. eigenvalues --    0.59210   0.62997   0.64257   0.66720   0.67927
 Alpha virt. eigenvalues --    0.68901   0.69093   0.70657   0.72376   0.74622
 Alpha virt. eigenvalues --    0.74960   0.76968   0.78137   0.79140   0.80706
 Alpha virt. eigenvalues --    0.81403   0.81807   0.84594   0.87313   0.89165
 Alpha virt. eigenvalues --    0.89950   0.91018   0.91682   0.92602   0.93842
 Alpha virt. eigenvalues --    0.94210   0.94780   0.95272   0.96555   0.98148
 Alpha virt. eigenvalues --    0.99108   0.99915   1.01536   1.01805   1.03038
 Alpha virt. eigenvalues --    1.03168   1.05919   1.06483   1.07073   1.07964
 Alpha virt. eigenvalues --    1.08994   1.10142   1.10915   1.11461   1.12236
 Alpha virt. eigenvalues --    1.13350   1.14662   1.16746   1.18617   1.22304
 Alpha virt. eigenvalues --    1.25028   1.27883   1.29303   1.34214   1.35043
 Alpha virt. eigenvalues --    1.39625   1.39929   1.43343   1.46132   1.49607
 Alpha virt. eigenvalues --    1.51077   1.54679   1.57990   1.58335   1.61083
 Alpha virt. eigenvalues --    1.63664   1.64994   1.68407   1.72136   1.73659
 Alpha virt. eigenvalues --    1.78205   1.79630   1.81805   1.86855   1.91465
 Alpha virt. eigenvalues --    1.93309   1.95338   1.95740   1.98972   2.00392
 Alpha virt. eigenvalues --    2.00705   2.06088   2.07679   2.08953   2.09725
 Alpha virt. eigenvalues --    2.10738   2.11905   2.13146   2.14640   2.15227
 Alpha virt. eigenvalues --    2.16393   2.18061   2.22705   2.24970   2.28415
 Alpha virt. eigenvalues --    2.29736   2.30924   2.31890   2.35627   2.39042
 Alpha virt. eigenvalues --    2.41089   2.42193   2.44166   2.45749   2.46502
 Alpha virt. eigenvalues --    2.47955   2.50836   2.53307   2.56704   2.57243
 Alpha virt. eigenvalues --    2.59316   2.60444   2.62099   2.63994   2.66733
 Alpha virt. eigenvalues --    2.72160   2.75499   2.77561   2.79617   2.82391
 Alpha virt. eigenvalues --    2.84561   2.87587   2.89316   2.96865   2.99103
 Alpha virt. eigenvalues --    3.06538   3.11090   3.12974   3.24865   3.25384
 Alpha virt. eigenvalues --    3.33045   3.37040   3.98192   4.24635   4.28282
 Alpha virt. eigenvalues --    4.40136   4.42259   4.48142   4.49159   4.58851
 Alpha virt. eigenvalues --    4.62001   4.68759   4.75752   4.83333   5.01357
          Condensed to atoms (all electrons):
              1          2          3          4          5          6
     1  C    4.291654   0.504318   0.359657  -0.026309  -0.041395  -0.030068
     2  O    0.504318   8.312881  -0.062512   0.000047   0.002917  -0.000651
     3  C    0.359657  -0.062512   5.176410   0.385479   0.380027   0.382332
     4  H   -0.026309   0.000047   0.385479   0.433366  -0.019703  -0.017285
     5  H   -0.041395   0.002917   0.380027  -0.019703   0.504789  -0.024600
     6  H   -0.030068  -0.000651   0.382332  -0.017285  -0.024600   0.492834
     7  N   -0.000047  -0.000015   0.000000   0.000000   0.000000   0.000000
     8  C    0.000002   0.000000   0.000000   0.000000   0.000000   0.000000
     9  H   -0.000003  -0.000007   0.000000   0.000000   0.000000   0.000000
    10  H    0.000000   0.000000   0.000000   0.000000   0.000000   0.000000
    11  H    0.000000   0.000000   0.000000   0.000000   0.000000   0.000000
    12  H    0.000000   0.000000   0.000000   0.000000   0.000000   0.000000
    13  N    0.295580  -0.087222  -0.072980   0.001440   0.002957   0.001782
    14  C   -0.056569  -0.007726   0.004745  -0.000132  -0.000029  -0.000132
    15  C    0.004168   0.001355  -0.000045   0.000003  -0.000018   0.000000
    16  O    0.000249  -0.000007  -0.000006   0.000000   0.000000   0.000000
    17  C   -0.001402  -0.005252  -0.000460  -0.000007   0.000022   0.000052
    18  C   -0.002828  -0.017882  -0.000034   0.000004  -0.000016  -0.000011
    19  N    0.000014  -0.000023   0.000000   0.000000   0.000000   0.000000
    20  C    0.000697   0.002173  -0.000006   0.000000  -0.000001  -0.000005
    21  H   -0.009228   0.001087   0.000978  -0.000033   0.000733  -0.000056
    22  H   -0.007722   0.005468   0.000538   0.000005  -0.000011  -0.000026
    23  H    0.000270  -0.000097  -0.000006   0.000000   0.000002  -0.000002
    24  H   -0.000044  -0.000186   0.000005   0.000000   0.000000  -0.000001
    25  H   -0.003074  -0.007907   0.000133  -0.000001  -0.000001  -0.000009
    26  H    0.000004  -0.000006  -0.000004   0.000000   0.000000   0.000012
    27  H   -0.006276  -0.012980   0.000447   0.000027   0.000080   0.000432
    28  H    0.000000   0.000000   0.000000   0.000000   0.000000   0.000000
    29  H   -0.000013  -0.000018   0.000000   0.000000   0.000000   0.000000
    30  H   -0.000012  -0.000027   0.000000   0.000000   0.000000   0.000000
    31  H   -0.000002  -0.000001   0.000000   0.000000   0.000000   0.000000
              7          8          9         10         11         12
     1  C   -0.000047   0.000002  -0.000003   0.000000   0.000000   0.000000
     2  O   -0.000015   0.000000  -0.000007   0.000000   0.000000   0.000000
     3  C    0.000000   0.000000   0.000000   0.000000   0.000000   0.000000
     4  H    0.000000   0.000000   0.000000   0.000000   0.000000   0.000000
     5  H    0.000000   0.000000   0.000000   0.000000   0.000000   0.000000
     6  H    0.000000   0.000000   0.000000   0.000000   0.000000   0.000000
     7  N    7.306479   0.191099   0.319243  -0.030520  -0.051441  -0.041489
     8  C    0.191099   4.980920  -0.015050   0.403932   0.409512   0.393305
     9  H    0.319243  -0.015050   0.306372   0.001660   0.000856  -0.002262
    10  H   -0.030520   0.403932   0.001660   0.435249  -0.028481  -0.022801
    11  H   -0.051441   0.409512   0.000856  -0.028481   0.522063  -0.032119
    12  H   -0.041489   0.393305  -0.002262  -0.022801  -0.032119   0.529992
    13  N    0.002055  -0.000095  -0.000063  -0.000026   0.000011   0.000000
    14  C   -0.091468   0.003802   0.001751   0.000867  -0.000187  -0.000032
    15  C    0.313104  -0.053517  -0.015101  -0.009574  -0.002211   0.004790
    16  O   -0.086242  -0.020881   0.001501   0.002449   0.000944   0.001141
    17  C    0.001111  -0.000134  -0.000002  -0.000025  -0.000003   0.000008
    18  C   -0.000083   0.000002  -0.000004   0.000000   0.000000   0.000000
    19  N    0.000000   0.000000   0.000000   0.000000   0.000000   0.000000
    20  C    0.000000   0.000000   0.000000   0.000000   0.000000   0.000000
    21  H    0.000189   0.000000  -0.000004  -0.000002   0.000000   0.000000
    22  H    0.003979  -0.000058   0.000879   0.000006  -0.000018  -0.000005
    23  H    0.000249  -0.000003  -0.000002   0.000001   0.000000  -0.000001
    24  H    0.002036  -0.000030   0.000086  -0.000009   0.000003  -0.000006
    25  H    0.000006   0.000000   0.000002   0.000000   0.000000   0.000000
    26  H    0.000000   0.000000   0.000000   0.000000   0.000000   0.000000
    27  H   -0.000002   0.000000   0.000000   0.000000   0.000000   0.000000
    28  H    0.000000   0.000000   0.000000   0.000000   0.000000   0.000000
    29  H   -0.000001   0.000000   0.000000   0.000000   0.000000   0.000000
    30  H    0.000000   0.000000   0.000000   0.000000   0.000000   0.000000
    31  H    0.000000   0.000000   0.000000   0.000000   0.000000   0.000000
             13         14         15         16         17         18
     1  C    0.295580  -0.056569   0.004168   0.000249  -0.001402  -0.002828
     2  O   -0.087222  -0.007726   0.001355  -0.000007  -0.005252  -0.017882
     3  C   -0.072980   0.004745  -0.000045  -0.000006  -0.000460  -0.000034
     4  H    0.001440  -0.000132   0.000003   0.000000  -0.000007   0.000004
     5  H    0.002957  -0.000029  -0.000018   0.000000   0.000022  -0.000016
     6  H    0.001782  -0.000132   0.000000   0.000000   0.000052  -0.000011
     7  N    0.002055  -0.091468   0.313104  -0.086242   0.001111  -0.000083
     8  C   -0.000095   0.003802  -0.053517  -0.020881  -0.000134   0.000002
     9  H   -0.000063   0.001751  -0.015101   0.001501  -0.000002  -0.000004
    10  H   -0.000026   0.000867  -0.009574   0.002449  -0.000025   0.000000
    11  H    0.000011  -0.000187  -0.002211   0.000944  -0.000003   0.000000
    12  H    0.000000  -0.000032   0.004790   0.001141   0.000008   0.000000
    13  N    7.354989   0.198752  -0.040474  -0.000132  -0.084134  -0.014856
    14  C    0.198752   5.121858   0.336094  -0.073754   0.336636  -0.038962
    15  C   -0.040474   0.336094   4.201537   0.563046  -0.040705   0.003883
    16  O   -0.000132  -0.073754   0.563046   8.214210  -0.000139  -0.000057
    17  C   -0.084134   0.336636  -0.040705  -0.000139   5.138170   0.324765
    18  C   -0.014856  -0.038962   0.003883  -0.000057   0.324765   5.227949
    19  N    0.000003  -0.000060   0.000000   0.000000   0.003239  -0.049876
    20  C   -0.000415   0.004781  -0.000012   0.000000  -0.047800   0.294755
    21  H    0.301200  -0.016717  -0.002149   0.007968   0.002009  -0.000047
    22  H   -0.033326   0.405305  -0.038610   0.001638  -0.037324  -0.005904
    23  H    0.001456  -0.033406  -0.002287   0.001533   0.399408  -0.046940
    24  H    0.004791  -0.034413  -0.002386   0.000016   0.386263  -0.041891
    25  H    0.001551  -0.003097  -0.000049  -0.000001  -0.028645   0.403012
    26  H    0.000003  -0.000020   0.000000   0.000000   0.000079  -0.001871
    27  H    0.006573  -0.005385  -0.000167   0.000004  -0.035248   0.400510
    28  H    0.000000   0.000002   0.000000   0.000000  -0.000087   0.002722
    29  H   -0.000008  -0.000089  -0.000005   0.000000  -0.000630  -0.035308
    30  H    0.000088  -0.000174  -0.000003   0.000000   0.000155  -0.034361
    31  H    0.000000   0.000002   0.000000   0.000000  -0.000087   0.001628
             19         20         21         22         23         24
     1  C    0.000014   0.000697  -0.009228  -0.007722   0.000270  -0.000044
     2  O   -0.000023   0.002173   0.001087   0.005468  -0.000097  -0.000186
     3  C    0.000000  -0.000006   0.000978   0.000538  -0.000006   0.000005
     4  H    0.000000   0.000000  -0.000033   0.000005   0.000000   0.000000
     5  H    0.000000  -0.000001   0.000733  -0.000011   0.000002   0.000000
     6  H    0.000000  -0.000005  -0.000056  -0.000026  -0.000002  -0.000001
     7  N    0.000000   0.000000   0.000189   0.003979   0.000249   0.002036
     8  C    0.000000   0.000000   0.000000  -0.000058  -0.000003  -0.000030
     9  H    0.000000   0.000000  -0.000004   0.000879  -0.000002   0.000086
    10  H    0.000000   0.000000  -0.000002   0.000006   0.000001  -0.000009
    11  H    0.000000   0.000000   0.000000  -0.000018   0.000000   0.000003
    12  H    0.000000   0.000000   0.000000  -0.000005  -0.000001  -0.000006
    13  N    0.000003  -0.000415   0.301200  -0.033326   0.001456   0.004791
    14  C   -0.000060   0.004781  -0.016717   0.405305  -0.033406  -0.034413
    15  C    0.000000  -0.000012  -0.002149  -0.038610  -0.002287  -0.002386
    16  O    0.000000   0.000000   0.007968   0.001638   0.001533   0.000016
    17  C    0.003239  -0.047800   0.002009  -0.037324   0.399408   0.386263
    18  C   -0.049876   0.294755  -0.000047  -0.005904  -0.046940  -0.041891
    19  N    6.947181   0.096359   0.000000   0.000000  -0.000034   0.000006
    20  C    0.096359   5.237466   0.000003  -0.000099  -0.006229  -0.006934
    21  H    0.000000   0.000003   0.268815   0.001361   0.000487  -0.000033
    22  H    0.000000  -0.000099   0.001361   0.431180   0.002739   0.001712
    23  H   -0.000034  -0.006229   0.000487   0.002739   0.505362  -0.021812
    24  H    0.000006  -0.006934  -0.000033   0.001712  -0.021812   0.527181
    25  H   -0.002993  -0.045301  -0.000014   0.000998   0.003322  -0.001310
    26  H    0.303501  -0.023218   0.000000  -0.000001   0.000017   0.000015
    27  H   -0.001833  -0.050587   0.000021   0.001087  -0.001263   0.004192
    28  H    0.309937  -0.017733   0.000000   0.000000  -0.000002   0.000007
    29  H   -0.036471   0.403940   0.000000   0.000020   0.000294   0.001998
    30  H   -0.035849   0.397727  -0.000001  -0.000003   0.002388   0.000428
    31  H    0.308189  -0.016578   0.000000   0.000000   0.000013  -0.000002
             25         26         27         28         29         30
     1  C   -0.003074   0.000004  -0.006276   0.000000  -0.000013  -0.000012
     2  O   -0.007907  -0.000006  -0.012980   0.000000  -0.000018  -0.000027
     3  C    0.000133  -0.000004   0.000447   0.000000   0.000000   0.000000
     4  H   -0.000001   0.000000   0.000027   0.000000   0.000000   0.000000
     5  H   -0.000001   0.000000   0.000080   0.000000   0.000000   0.000000
     6  H   -0.000009   0.000012   0.000432   0.000000   0.000000   0.000000
     7  N    0.000006   0.000000  -0.000002   0.000000  -0.000001   0.000000
     8  C    0.000000   0.000000   0.000000   0.000000   0.000000   0.000000
     9  H    0.000002   0.000000   0.000000   0.000000   0.000000   0.000000
    10  H    0.000000   0.000000   0.000000   0.000000   0.000000   0.000000
    11  H    0.000000   0.000000   0.000000   0.000000   0.000000   0.000000
    12  H    0.000000   0.000000   0.000000   0.000000   0.000000   0.000000
    13  N    0.001551   0.000003   0.006573   0.000000  -0.000008   0.000088
    14  C   -0.003097  -0.000020  -0.005385   0.000002  -0.000089  -0.000174
    15  C   -0.000049   0.000000  -0.000167   0.000000  -0.000005  -0.000003
    16  O   -0.000001   0.000000   0.000004   0.000000   0.000000   0.000000
    17  C   -0.028645   0.000079  -0.035248  -0.000087  -0.000630   0.000155
    18  C    0.403012  -0.001871   0.400510   0.002722  -0.035308  -0.034361
    19  N   -0.002993   0.303501  -0.001833   0.309937  -0.036471  -0.035849
    20  C   -0.045301  -0.023218  -0.050587  -0.017733   0.403940   0.397727
    21  H   -0.000014   0.000000   0.000021   0.000000   0.000000  -0.000001
    22  H    0.000998  -0.000001   0.001087   0.000000   0.000020  -0.000003
    23  H    0.003322   0.000017  -0.001263  -0.000002   0.000294   0.002388
    24  H   -0.001310   0.000015   0.004192   0.000007   0.001998   0.000428
    25  H    0.457995   0.003876  -0.022097  -0.000218  -0.001809   0.003153
    26  H    0.003876   0.252997   0.001652  -0.009236   0.001454   0.002634
    27  H   -0.022097   0.001652   0.535501   0.000043   0.003502  -0.001818
    28  H   -0.000218  -0.009236   0.000043   0.253380  -0.003362   0.000608
    29  H   -0.001809   0.001454   0.003502  -0.003362   0.434444  -0.018003
    30  H    0.003153   0.002634  -0.001818   0.000608  -0.018003   0.440118
    31  H    0.000068  -0.008077   0.000041  -0.007364   0.001722  -0.003600
             31
     1  C   -0.000002
     2  O   -0.000001
     3  C    0.000000
     4  H    0.000000
     5  H    0.000000
     6  H    0.000000
     7  N    0.000000
     8  C    0.000000
     9  H    0.000000
    10  H    0.000000
    11  H    0.000000
    12  H    0.000000
    13  N    0.000000
    14  C    0.000002
    15  C    0.000000
    16  O    0.000000
    17  C   -0.000087
    18  C    0.001628
    19  N    0.308189
    20  C   -0.016578
    21  H    0.000000
    22  H    0.000000
    23  H    0.000013
    24  H   -0.000002
    25  H    0.000068
    26  H   -0.008077
    27  H    0.000041
    28  H   -0.007364
    29  H    0.001722
    30  H   -0.003600
    31  H    0.254186
 Mulliken atomic charges:
              1
     1  C    0.728379
     2  O   -0.627729
     3  C   -0.554699
     4  H    0.243096
     5  H    0.194246
     6  H    0.195401
     7  N   -0.838242
     8  C   -0.292805
     9  H    0.400145
    10  H    0.247273
    11  H    0.181071
    12  H    0.169478
    13  N   -0.839499
    14  C   -0.052241
    15  C    0.779330
    16  O   -0.613478
    17  C   -0.309835
    18  C   -0.368301
    19  N   -0.841290
    20  C   -0.222983
    21  H    0.443432
    22  H    0.266189
    23  H    0.194542
    24  H    0.180317
    25  H    0.242408
    26  H    0.476190
    27  H    0.183544
    28  H    0.471305
    29  H    0.248342
    30  H    0.246552
    31  H    0.469861
 Sum of Mulliken charges=   1.00000
 Atomic charges with hydrogens summed into heavy atoms:
              1
     1  C    0.728379
     2  O   -0.627729
     3  C    0.078044
     4  H    0.000000
     5  H    0.000000
     6  H    0.000000
     7  N   -0.438097
     8  C    0.305017
     9  H    0.000000
    10  H    0.000000
    11  H    0.000000
    12  H    0.000000
    13  N   -0.396067
    14  C    0.213948
    15  C    0.779330
    16  O   -0.613478
    17  C    0.065024
    18  C    0.057651
    19  N    0.576066
    20  C    0.271912
    21  H    0.000000
    22  H    0.000000
    23  H    0.000000
    24  H    0.000000
    25  H    0.000000
    26  H    0.000000
    27  H    0.000000
    28  H    0.000000
    29  H    0.000000
    30  H    0.000000
    31  H    0.000000
 Sum of Mulliken charges=   1.00000
 Electronic spatial extent (au):  <R**2>=  3361.2571
 Charge=     1.0000 electrons
 Dipole moment (field-independent basis, Debye):
    X=   -15.9653    Y=    -6.4886    Z=    -0.1598  Tot=    17.2342
 Quadrupole moment (field-independent basis, Debye-Ang):
   XX=   -10.6637   YY=   -52.0720   ZZ=   -77.0352
   XY=    22.7083   XZ=    11.0452   YZ=    -6.2740
 Traceless Quadrupole moment (field-independent basis, Debye-Ang):
   XX=    35.9266   YY=    -5.4817   ZZ=   -30.4449
   XY=    22.7083   XZ=    11.0452   YZ=    -6.2740
 Octapole moment (field-independent basis, Debye-Ang**2):
  XXX=  -279.2309  YYY=    -4.0075  ZZZ=    -0.5865  XYY=   -70.0809
  XXY=  -128.1967  XXZ=    14.4607  XZZ=   -10.8111  YZZ=   -11.5543
  YYZ=    -3.0193  XYZ=     0.7139
 Hexadecapole moment (field-independent basis, Debye-Ang**3):
 XXXX= -1450.9839 YYYY=  -984.4886 ZZZZ=  -275.9672 XXXY=   449.6920
 XXXZ=    62.8340 YYYX=   122.5291 YYYZ=   -17.4905 ZZZX=    27.3352
 ZZZY=   -22.6715 XXYY=  -398.6281 XXZZ=  -479.4800 YYZZ=  -225.8013
 XXYZ=   -15.2260 YYXZ=    -4.2801 ZZXY=    25.9774
 N-N= 8.634937681459D+02 E-N=-3.179236897798D+03  KE= 6.245393094036D+02
 ***** Axes restored to original set *****
 -------------------------------------------------------------------
 Center     Atomic                   Forces (Hartrees/Bohr)
 Number     Number              X              Y              Z
 -------------------------------------------------------------------
    1          6           0.035877150    0.015330883    0.014318771
    2          8          -0.055898494    0.028745026    0.039642354
    3          6           0.004453763    0.017238274    0.005814524
    4          1           0.002790252   -0.001269142   -0.001240830
    5          1          -0.004085130   -0.000619928    0.000921083
    6          1           0.000897779   -0.002239830   -0.002342113
    7          7          -0.089789354    0.017661493   -0.024551176
    8          6           0.033215837   -0.004127205    0.005728760
    9          1          -0.022524015    0.025131617    0.013265185
   10          1           0.007706080   -0.005153360    0.000051525
   11          1           0.000488722    0.002031322    0.003941428
   12          1           0.004407800   -0.000604209    0.000893890
   13          7          -0.032916480   -0.064719762   -0.008548220
   14          6           0.006694479    0.013977282    0.006526103
   15          6           0.040626602    0.034938796    0.037107808
   16          8           0.016827756   -0.062544123   -0.038721558
   17          6           0.010645802    0.006329435   -0.019669153
   18          6           0.008983919    0.008576804   -0.015137081
   19          7          -0.003093324   -0.001961932   -0.012007821
   20          6           0.016754039    0.025760820    0.037490454
   21          1           0.042774807   -0.047208349   -0.024717728
   22          1          -0.010281107    0.019469764   -0.002426947
   23          1           0.008041355   -0.009975922    0.011294861
   24          1          -0.009427062    0.001247906    0.009612133
   25          1          -0.005955883    0.007497037   -0.004538999
   26          1          -0.001885968   -0.003926036   -0.005211100
   27          1           0.007659234    0.000936023   -0.009976730
   28          1          -0.007446130   -0.005177169   -0.003942727
   29          1          -0.008807232   -0.000569413   -0.003176919
   30          1           0.004142797   -0.006449643   -0.006260683
   31          1          -0.000877996   -0.008326458   -0.004139096
 -------------------------------------------------------------------
 Cartesian Forces:  Max     0.089789354 RMS     0.021883499

 GradGradGradGradGradGradGradGradGradGradGradGradGradGradGradGradGradGrad
 Berny optimization.
 Internal  Forces:  Max     0.087222522 RMS     0.022471904
 Search for a local minimum.
 Step number   1 out of a maximum of 163
 All quantities printed in internal units (Hartrees-Bohrs-Radians)
 Second derivative matrix not updated -- first step.
     Eigenvalues ---    0.00237   0.00240   0.00261   0.00595   0.00654
     Eigenvalues ---    0.00673   0.00761   0.00767   0.00819   0.00909
     Eigenvalues ---    0.00910   0.01010   0.03303   0.03548   0.03837
     Eigenvalues ---    0.04038   0.04518   0.04697   0.04895   0.05075
     Eigenvalues ---    0.05628   0.06058   0.06068   0.07097   0.07322
     Eigenvalues ---    0.07329   0.07558   0.07570   0.07660   0.07812
     Eigenvalues ---    0.08174   0.11705   0.11781   0.12038   0.15588
     Eigenvalues ---    0.16000   0.16000   0.16000   0.16000   0.16000
     Eigenvalues ---    0.16000   0.16000   0.16000   0.16000   0.16000
     Eigenvalues ---    0.16000   0.16473   0.21896   0.21946   0.21951
     Eigenvalues ---    0.22000   0.24125   0.25000   0.25000   0.25000
     Eigenvalues ---    0.28520   0.28544   0.28684   0.31058   0.31252
     Eigenvalues ---    0.32920   0.33054   0.33064   0.34770   0.34800
     Eigenvalues ---    0.34817   0.34823   0.34831   0.35695   0.35748
     Eigenvalues ---    0.35805   0.35910   0.35947   0.35992   0.35995
     Eigenvalues ---    0.36033   0.36052   0.36731   0.38041   0.42710
     Eigenvalues ---    0.45926   0.45964   0.45974   0.87877   0.88546
     Eigenvalues --- 1000.000001000.000001000.000001000.000001000.00000
     Eigenvalues --- 1000.000001000.000001000.000001000.000001000.00000
     Eigenvalues --- 1000.000001000.000001000.000001000.000001000.00000
     Eigenvalues --- 1000.000001000.000001000.000001000.000001000.00000
     Eigenvalues --- 1000.000001000.000001000.000001000.000001000.00000
     Eigenvalues --- 1000.000001000.000001000.000001000.000001000.00000
     Eigenvalues --- 1000.000001000.000001000.000001000.000001000.00000
     Eigenvalues --- 1000.000001000.000001000.000001000.000001000.00000
     Eigenvalues --- 1000.000001000.000001000.000001000.000001000.00000
     Eigenvalues --- 1000.000001000.000001000.000001000.000001000.00000
     Eigenvalues --- 1000.000001000.000001000.000001000.000001000.00000
     Eigenvalues --- 1000.000001000.000001000.000001000.000001000.00000
     Eigenvalues --- 1000.000001000.000001000.000001000.000001000.00000
     Eigenvalues --- 1000.000001000.000001000.00000
 RFO step:  Lambda=-1.73537150D-01.
 Linear search not attempted -- first point.
 Maximum step size (   0.300) exceeded in Quadratic search.
    -- Step size scaled by   0.450
 Iteration  1 RMS(Cart)=  0.20796389 RMS(Int)=  0.00500330
 Iteration  2 RMS(Cart)=  0.01495834 RMS(Int)=  0.00033631
 Iteration  3 RMS(Cart)=  0.00008320 RMS(Int)=  0.00033562
 Iteration  4 RMS(Cart)=  0.00000003 RMS(Int)=  0.00033562
 Iteration  1 RMS(Cart)=  0.00015587 RMS(Int)=  0.00007016
 Iteration  2 RMS(Cart)=  0.00009024 RMS(Int)=  0.00007765
 Iteration  3 RMS(Cart)=  0.00005394 RMS(Int)=  0.00008906
 Iteration  4 RMS(Cart)=  0.00003327 RMS(Int)=  0.00009839
 Iteration  5 RMS(Cart)=  0.00002109 RMS(Int)=  0.00010513
 Iteration  6 RMS(Cart)=  0.00001365 RMS(Int)=  0.00010980
 Iteration  7 RMS(Cart)=  0.00000897 RMS(Int)=  0.00011299
 Iteration  8 RMS(Cart)=  0.00000595 RMS(Int)=  0.00011514
 Iteration  9 RMS(Cart)=  0.00000397 RMS(Int)=  0.00011659
 Iteration 10 RMS(Cart)=  0.00000266 RMS(Int)=  0.00011756
 Iteration 11 RMS(Cart)=  0.00000178 RMS(Int)=  0.00011822
 Iteration 12 RMS(Cart)=  0.00000120 RMS(Int)=  0.00011866
 Iteration 13 RMS(Cart)=  0.00000080 RMS(Int)=  0.00011895
 Variable       Old X    -DE/DX   Delta X   Delta X   Delta X     New X
                                 (Linear)    (Quad)   (Total)
    R1        2.33925  -0.07232   0.00000  -0.03094  -0.03094   2.30831
    R2        2.85903  -0.00717   0.00000  -0.00667  -0.00667   2.85235
    R3        2.77913  -0.08722   0.00000  -0.07374  -0.07363   2.70550
    R4        3.85722   0.02811   0.00000   0.05816   0.05805   3.91527
    R5        2.04387   0.00018   0.00000   0.00016   0.00016   2.04403
    R6        2.04164   0.00207   0.00000   0.00175   0.00175   2.04339
    R7        2.04089   0.00222   0.00000   0.00187   0.00187   2.04277
    R8        2.74306   0.01367   0.00000   0.01112   0.01112   2.75418
    R9        1.94730  -0.03620   0.00000  -0.02714  -0.02714   1.92015
   R10        2.77861  -0.06962   0.00000  -0.05910  -0.05910   2.71950
   R11        2.04030  -0.00873   0.00000  -0.00737  -0.00737   2.03293
   R12        2.04223   0.00305   0.00000   0.00258   0.00258   2.04481
   R13        2.04001   0.00379   0.00000   0.00320   0.00320   2.04321
   R14        2.75832  -0.00298   0.00000  -0.00219  -0.00211   2.75621
   R15        2.04094  -0.06815   0.00000  -0.05754  -0.05754   1.98341
   R16        2.85535  -0.00097   0.00000  -0.00090  -0.00090   2.85445
   R17        2.90666   0.02957   0.00000   0.02893   0.02893   2.93559
   R18        2.08857  -0.01650   0.00000  -0.01481  -0.01484   2.07373
   R19        2.33610  -0.07270   0.00000  -0.03092  -0.03092   2.30518
   R20        2.90965   0.00126   0.00000   0.00124   0.00124   2.91089
   R21        2.09192  -0.01419   0.00000  -0.01271  -0.01271   2.07921
   R22        2.08957  -0.01180   0.00000  -0.01054  -0.01054   2.07903
   R23        2.91016  -0.00290   0.00000  -0.00285  -0.00285   2.90731
   R24        2.06000  -0.00976   0.00000  -0.00843  -0.00843   2.05157
   R25        2.05973  -0.00992   0.00000  -0.00856  -0.00856   2.05117
   R26        2.77778   0.03403   0.00000   0.02887   0.02887   2.80664
   R27        1.90872   0.00100   0.00000   0.00071   0.00071   1.90943
   R28        1.90860  -0.00042   0.00000  -0.00030  -0.00030   1.90831
   R29        1.90915  -0.00106   0.00000  -0.00076  -0.00076   1.90839
   R30        2.06051  -0.00777   0.00000  -0.00671  -0.00671   2.05380
   R31        2.05964  -0.00699   0.00000  -0.00603  -0.00603   2.05361
    A1        2.11228   0.01552   0.00000   0.01610   0.01595   2.12823
    A2        2.08555  -0.01057   0.00000  -0.01044  -0.01033   2.07522
    A3        2.08535  -0.00495   0.00000  -0.00566  -0.00581   2.07954
    A4        1.92107  -0.00511   0.00000  -0.00730  -0.00731   1.91376
    A5        1.92042   0.00748   0.00000   0.01077   0.01078   1.93120
    A6        1.92116  -0.00275   0.00000  -0.00399  -0.00400   1.91715
    A7        1.89983   0.00020   0.00000   0.00080   0.00081   1.90065
    A8        1.90079   0.00052   0.00000  -0.00062  -0.00065   1.90013
    A9        1.90020  -0.00032   0.00000   0.00035   0.00035   1.90055
   A10        2.20952  -0.04194   0.00000  -0.04769  -0.04769   2.16183
   A11        1.86473   0.08688   0.00000   0.09943   0.09943   1.96416
   A12        2.20894  -0.04494   0.00000  -0.05174  -0.05174   2.15719
   A13        1.91954   0.00179   0.00000   0.00257   0.00257   1.92211
   A14        1.92129   0.00460   0.00000   0.00637   0.00636   1.92765
   A15        1.92046  -0.00161   0.00000  -0.00249  -0.00249   1.91797
   A16        1.89948  -0.00153   0.00000  -0.00144  -0.00146   1.89802
   A17        1.90143  -0.00095   0.00000  -0.00159  -0.00159   1.89985
   A18        1.90130  -0.00240   0.00000  -0.00355  -0.00354   1.89775
   A19        1.85364   0.05656   0.00000   0.06606   0.06629   1.91993
   A20        2.21453  -0.02489   0.00000  -0.02844  -0.02861   2.18592
   A21        2.21501  -0.03168   0.00000  -0.03763  -0.03779   2.17721
   A22        1.93555  -0.02205   0.00000  -0.02614  -0.02452   1.91103
   A23        1.87898   0.06715   0.00000   0.07565   0.07407   1.95305
   A24        1.89875  -0.02553   0.00000  -0.02433  -0.02465   1.87410
   A25        1.96822  -0.04935   0.00000  -0.08143  -0.08029   1.88793
   A26        1.87143   0.02520   0.00000   0.04652   0.04628   1.91770
   A27        1.91006   0.00380   0.00000   0.00978   0.01005   1.92011
   A28        2.07619  -0.02052   0.00000  -0.02182  -0.02183   2.05436
   A29        2.07628   0.03378   0.00000   0.03593   0.03591   2.11219
   A30        2.13071  -0.01326   0.00000  -0.01410  -0.01411   2.11659
   A31        1.95103   0.07896   0.00000   0.09306   0.09338   2.04441
   A32        1.95697  -0.02683   0.00000  -0.03332  -0.03392   1.92305
   A33        1.95321  -0.02474   0.00000  -0.03094  -0.03127   1.92194
   A34        1.86663  -0.01927   0.00000  -0.01620  -0.01582   1.85081
   A35        1.86125  -0.02285   0.00000  -0.02245  -0.02202   1.83922
   A36        1.86896   0.01265   0.00000   0.00773   0.00672   1.87568
   A37        1.91090  -0.00236   0.00000  -0.00284  -0.00283   1.90808
   A38        1.91162   0.00275   0.00000   0.00486   0.00485   1.91647
   A39        1.91033   0.00497   0.00000   0.00810   0.00808   1.91842
   A40        1.91135  -0.00117   0.00000  -0.00284  -0.00284   1.90850
   A41        1.90997  -0.00410   0.00000  -0.00759  -0.00759   1.90238
   A42        1.90963  -0.00011   0.00000   0.00031   0.00025   1.90988
   A43        1.91144   0.00505   0.00000   0.00673   0.00669   1.91813
   A44        1.91118   0.01014   0.00000   0.01374   0.01366   1.92484
   A45        1.90989   0.00935   0.00000   0.01267   0.01260   1.92249
   A46        1.91083  -0.00784   0.00000  -0.01069  -0.01074   1.90010
   A47        1.90990  -0.00737   0.00000  -0.01003  -0.01007   1.89983
   A48        1.91055  -0.00935   0.00000  -0.01244  -0.01253   1.89802
   A49        1.91148   0.00256   0.00000   0.00325   0.00326   1.91474
   A50        1.91137   0.00246   0.00000   0.00485   0.00486   1.91623
   A51        1.90956   0.00306   0.00000   0.00598   0.00598   1.91555
   A52        1.91087  -0.00378   0.00000  -0.00635  -0.00637   1.90450
   A53        1.90980  -0.00361   0.00000  -0.00588  -0.00590   1.90390
   A54        1.91071  -0.00070   0.00000  -0.00185  -0.00191   1.90881
    D1        1.04773  -0.00624   0.00000  -0.01416  -0.01420   1.03353
    D2        3.14141  -0.00449   0.00000  -0.01098  -0.01104   3.13037
    D3       -1.04759  -0.00190   0.00000  -0.00625  -0.00632  -1.05391
    D4       -2.09416   0.00228   0.00000   0.00699   0.00707  -2.08709
    D5       -0.00048   0.00402   0.00000   0.01017   0.01023   0.00974
    D6        2.09370   0.00661   0.00000   0.01491   0.01495   2.10865
    D7       -0.00086   0.00456   0.00000   0.02827   0.02799   0.02713
    D8        3.14151   0.02425   0.00000   0.04299   0.04303  -3.09865
    D9        3.14103  -0.00383   0.00000   0.00745   0.00737  -3.13479
   D10        0.00021   0.01586   0.00000   0.02216   0.02241   0.02262
   D11        2.71620  -0.00201   0.00000  -0.00423  -0.00423   2.71197
   D12       -1.47417   0.00012   0.00000  -0.00037  -0.00036  -1.47453
   D13        0.62148  -0.00095   0.00000  -0.00232  -0.00232   0.61917
   D14       -0.42555  -0.00371   0.00000  -0.00842  -0.00843  -0.43398
   D15        1.66727  -0.00158   0.00000  -0.00457  -0.00456   1.66270
   D16       -2.52027  -0.00265   0.00000  -0.00651  -0.00651  -2.52678
   D17       -3.14046  -0.00084   0.00000  -0.00673  -0.00709   3.13563
   D18       -0.00016  -0.00083   0.00000   0.00255   0.00291   0.00275
   D19        0.00097  -0.00254   0.00000  -0.01092  -0.01127  -0.01030
   D20        3.14128  -0.00253   0.00000  -0.00164  -0.00128   3.14000
   D21       -2.61800   0.02016   0.00000   0.00000   0.00000  -2.61800
   D22        1.50442   0.05060   0.00000   0.06732   0.06768   1.57210
   D23       -0.56386   0.02244   0.00000   0.02662   0.02726  -0.53660
   D24        0.52282   0.00047   0.00000  -0.01471  -0.01495   0.50787
   D25       -1.63795   0.03090   0.00000   0.05261   0.05273  -1.58521
   D26        2.57696   0.00274   0.00000   0.01191   0.01232   2.58928
   D27        2.61799  -0.02140   0.00000   0.00000   0.00000   2.61799
   D28       -0.52227  -0.02144   0.00000  -0.00962  -0.01007  -0.53234
   D29       -1.55640   0.01499   0.00000   0.02211   0.02373  -1.53267
   D30        1.58652   0.01495   0.00000   0.01249   0.01367   1.60019
   D31        0.54726   0.00663   0.00000   0.01598   0.01642   0.56368
   D32       -2.59300   0.00658   0.00000   0.00636   0.00635  -2.58664
   D33       -1.03759  -0.00940   0.00000  -0.02139  -0.02235  -1.05994
   D34        1.05847   0.00251   0.00000  -0.00016  -0.00161   1.05685
   D35       -3.12414  -0.01758   0.00000  -0.03554  -0.03614   3.12291
   D36        3.10481   0.00321   0.00000   0.01117   0.01188   3.11669
   D37       -1.08232   0.01511   0.00000   0.03240   0.03261  -1.04971
   D38        1.01826  -0.00497   0.00000  -0.00298  -0.00192   1.01634
   D39        1.02342   0.00047   0.00000  -0.00196  -0.00157   1.02184
   D40        3.11947   0.01237   0.00000   0.01927   0.01916   3.13864
   D41       -1.06313  -0.00771   0.00000  -0.01611  -0.01537  -1.07850
   D42       -3.14151  -0.00004   0.00000   0.00079   0.00088  -3.14062
   D43       -1.04547  -0.00123   0.00000  -0.00146  -0.00137  -1.04684
   D44        1.04812   0.00337   0.00000   0.00686   0.00698   1.05510
   D45        0.99347  -0.00290   0.00000  -0.00488  -0.00501   0.98846
   D46        3.08951  -0.00409   0.00000  -0.00712  -0.00726   3.08224
   D47       -1.10009   0.00051   0.00000   0.00120   0.00108  -1.09901
   D48       -1.00158   0.00232   0.00000   0.00436   0.00439  -0.99718
   D49        1.09446   0.00114   0.00000   0.00212   0.00214   1.09660
   D50       -3.09514   0.00574   0.00000   0.01044   0.01049  -3.08465
   D51       -3.13819  -0.00067   0.00000  -0.00121  -0.00121  -3.13940
   D52        1.04934   0.00088   0.00000   0.00160   0.00160   1.05094
   D53       -1.04496  -0.00165   0.00000  -0.00276  -0.00277  -1.04772
   D54        1.04878  -0.00188   0.00000  -0.00368  -0.00367   1.04511
   D55       -1.04687  -0.00034   0.00000  -0.00087  -0.00086  -1.04773
   D56       -3.14116  -0.00286   0.00000  -0.00523  -0.00523   3.13679
   D57       -1.04441   0.00147   0.00000   0.00233   0.00233  -1.04208
   D58       -3.14006   0.00302   0.00000   0.00514   0.00514  -3.13492
   D59        1.04883   0.00049   0.00000   0.00078   0.00077   1.04960
   D60       -0.19091  -0.00024   0.00000  -0.00071  -0.00071  -0.19162
   D61        1.90506   0.00204   0.00000   0.00333   0.00331   1.90837
   D62       -2.28400  -0.00334   0.00000  -0.00642  -0.00640  -2.29040
   D63       -2.28638   0.00004   0.00000  -0.00018  -0.00017  -2.28655
   D64       -0.19042   0.00231   0.00000   0.00385   0.00385  -0.18656
   D65        1.90371  -0.00307   0.00000  -0.00589  -0.00586   1.89785
   D66        1.90263  -0.00045   0.00000  -0.00112  -0.00113   1.90150
   D67       -2.28459   0.00182   0.00000   0.00292   0.00289  -2.28170
   D68       -0.19047  -0.00355   0.00000  -0.00682  -0.00682  -0.19729
         Item               Value     Threshold  Converged?
 Maximum Force            0.088091     0.000450     NO 
 RMS     Force            0.022352     0.000300     NO 
 Maximum Displacement     0.795505     0.001800     NO 
 RMS     Displacement     0.216071     0.001200     NO 
 Predicted change in Energy=-6.846132D-02
 GradGradGradGradGradGradGradGradGradGradGradGradGradGradGradGradGradGrad

                          Input orientation:                          
 ---------------------------------------------------------------------
 Center     Atomic     Atomic              Coordinates (Angstroms)
 Number     Number      Type              X           Y           Z
 ---------------------------------------------------------------------
    1          6             0        0.866625   -0.058139   -0.341990
    2          8             0        1.648978   -0.878112   -0.797669
    3          6             0       -0.559089   -0.418195   -0.001422
    4          1             0       -0.568193   -1.209233    0.736244
    5          1             0       -1.083929    0.438868    0.397610
    6          1             0       -1.072804   -0.761416   -0.888454
    7          7             0        4.810237    2.287400    0.599233
    8          6             0        5.352926    3.353529    1.431706
    9          1             0        5.362469    1.515300    0.236794
   10          1             0        4.748010    4.238477    1.340864
   11          1             0        5.371426    3.049986    2.470161
   12          1             0        6.361707    3.586359    1.119962
   13          7             0        1.325329    1.276552   -0.101321
   14          6             0        2.719849    1.405926   -0.508593
   15          6             0        3.401564    2.444679    0.350415
   16          8             0        2.783603    3.390278    0.810853
   17          6             0        2.851703    1.842883   -1.993476
   18          6             0        2.251585    0.904895   -3.057807
   19          7             0        1.904468    0.609489   -5.488034
   20          6             0        2.482821    1.506169   -4.454918
   21          1             0        0.751237    2.047551    0.320084
   22          1             0        3.196436    0.428535   -0.360973
   23          1             0        2.372023    2.821380   -2.145264
   24          1             0        3.912802    1.949792   -2.263699
   25          1             0        2.729082   -0.068481   -3.001589
   26          1             0        1.649164   -0.275112   -5.071782
   27          1             0        1.184494    0.793612   -2.893207
   28          1             0        2.576704    0.442691   -6.222907
   29          1             0        3.548697    1.616999   -4.636049
   30          1             0        2.003138    2.479118   -4.520020
   31          1             0        1.079937    1.030220   -5.891749
 ---------------------------------------------------------------------
                    Distance matrix (angstroms):
                    1          2          3          4          5
     1  C    0.000000
     2  O    1.221505   0.000000
     3  C    1.509400   2.391880   0.000000
     4  H    2.132207   2.716316   1.081654   0.000000
     5  H    2.144455   3.260661   1.081314   1.759799   0.000000
     6  H    2.134153   2.725795   1.080985   1.759209   1.759195
     7  N    4.683965   4.686721   6.042408   6.416597   6.180528
     8  C    5.908669   6.049474   7.157631   7.507471   7.141269
     9  H    4.798262   4.537461   6.233779   6.545631   6.537632
    10  H    6.029764   6.352700   7.186907   7.635779   7.024121
    11  H    6.153199   6.321810   7.301233   7.511756   7.265330
    12  H    6.753931   6.768945   8.074117   8.436140   8.115787
    13  N    1.431688   2.287405   2.536371   3.235130   2.599072
    14  C    2.367632   2.539125   3.786301   4.381768   4.028044
    15  C    3.628971   3.928179   4.899654   5.409150   4.913772
    16  O    4.110405   4.700411   5.132041   5.691713   4.882561
    17  C    3.206529   3.206293   4.551292   5.335023   4.814328
    18  C    3.197063   2.941169   4.357975   5.178369   4.825220
    19  N    5.291939   4.927247   6.101488   6.939989   6.603063
    20  C    4.687785   4.444723   5.726257   6.605321   6.116198
    21  H    2.210336   3.258038   2.810734   3.538464   2.441661
    22  H    2.380174   2.071872   3.866548   4.249541   4.347077
    23  H    3.716134   4.003130   4.866449   5.761406   4.907767
    24  H    4.123584   3.907836   5.542839   6.249673   5.859418
    25  H    3.246894   2.584452   4.464905   5.113192   5.133324
    26  H    4.798998   4.316440   5.532215   6.286686   6.155796
    27  H    2.708363   2.720604   3.587614   4.500690   4.012614
    28  H    6.144948   5.660248   7.020057   7.813387   7.565151
    29  H    5.332779   4.956579   6.518871   7.334705   6.941681
    30  H    5.018493   5.025169   5.947870   6.916935   6.154323
    31  H    5.659492   5.469478   6.283332   7.187613   6.677429
                    6          7          8          9         10
     6  H    0.000000
     7  N    6.791073   0.000000
     8  C    7.975333   1.457448   0.000000
     9  H    6.918263   1.016101   2.192486   0.000000
    10  H    7.990662   2.088203   1.075782   3.002036   0.000000
    11  H    8.205802   2.096864   1.082066   2.709846   1.753986
    12  H    8.843576   2.089381   1.081218   2.463280   1.754444
    13  N    3.244062   3.695561   4.783884   4.058303   4.750541
    14  C    4.384734   2.524677   3.806706   2.747909   3.944271
[...]
 Alpha virt. eigenvalues --    0.60278   0.61447   0.63768   0.65974   0.66694
 Alpha virt. eigenvalues --    0.67376   0.68927   0.70450   0.72120   0.73080
 Alpha virt. eigenvalues --    0.73806   0.75266   0.75916   0.77250   0.81049
 Alpha virt. eigenvalues --    0.83969   0.85093   0.87337   0.87377   0.88922
 Alpha virt. eigenvalues --    0.91399   0.91678   0.92207   0.92300   0.93826
 Alpha virt. eigenvalues --    0.94106   0.94504   0.96580   0.97644   0.98210
 Alpha virt. eigenvalues --    1.00456   1.01524   1.03368   1.04355   1.04826
 Alpha virt. eigenvalues --    1.05179   1.06059   1.07314   1.07538   1.08824
 Alpha virt. eigenvalues --    1.09596   1.11455   1.11674   1.12285   1.12579
 Alpha virt. eigenvalues --    1.13249   1.14688   1.15335   1.19412   1.24647
 Alpha virt. eigenvalues --    1.25489   1.28171   1.29185   1.31999   1.35411
 Alpha virt. eigenvalues --    1.38093   1.43224   1.45158   1.46895   1.50780
 Alpha virt. eigenvalues --    1.52192   1.54659   1.56023   1.58212   1.60824
 Alpha virt. eigenvalues --    1.64971   1.67629   1.69029   1.71696   1.72657
 Alpha virt. eigenvalues --    1.77314   1.78258   1.86054   1.87658   1.91608
 Alpha virt. eigenvalues --    1.92863   1.94672   1.97509   2.00440   2.02010
 Alpha virt. eigenvalues --    2.03247   2.03968   2.05182   2.06984   2.08072
 Alpha virt. eigenvalues --    2.10757   2.11639   2.12564   2.13112   2.15370
 Alpha virt. eigenvalues --    2.17644   2.19828   2.22328   2.23131   2.26059
 Alpha virt. eigenvalues --    2.29390   2.30620   2.30792   2.37015   2.38633
 Alpha virt. eigenvalues --    2.40258   2.42778   2.44553   2.47163   2.48507
 Alpha virt. eigenvalues --    2.50239   2.52142   2.56736   2.57605   2.60090
 Alpha virt. eigenvalues --    2.61351   2.63836   2.63864   2.66960   2.71167
 Alpha virt. eigenvalues --    2.72153   2.76940   2.78244   2.81151   2.85906
 Alpha virt. eigenvalues --    2.89874   2.93614   2.97222   3.00232   3.02512
 Alpha virt. eigenvalues --    3.07276   3.16249   3.23059   3.27918   3.30047
 Alpha virt. eigenvalues --    3.43768   3.49910   3.96691   4.30203   4.33067
 Alpha virt. eigenvalues --    4.39518   4.46860   4.51073   4.54768   4.60751
 Alpha virt. eigenvalues --    4.63836   4.71265   4.77645   4.83853   4.98996
          Condensed to atoms (all electrons):
              1          2          3          4          5          6
     1  C    4.171380   0.585062   0.372994  -0.026204  -0.037982  -0.032691
     2  O    0.585062   8.207731  -0.068195   0.000180   0.002265   0.002144
     3  C    0.372994  -0.068195   5.239022   0.378536   0.378890   0.384432
     4  H   -0.026204   0.000180   0.378536   0.462913  -0.021375  -0.016736
     5  H   -0.037982   0.002265   0.378890  -0.021375   0.504801  -0.021555
     6  H   -0.032691   0.002144   0.384432  -0.016736  -0.021555   0.464292
     7  N   -0.000090  -0.000002   0.000000   0.000000   0.000000   0.000000
     8  C    0.000002   0.000000   0.000000   0.000000   0.000000   0.000000
     9  H   -0.000014  -0.000003   0.000000   0.000000   0.000000   0.000000
    10  H    0.000000   0.000000   0.000000   0.000000   0.000000   0.000000
    11  H    0.000000   0.000000   0.000000   0.000000   0.000000   0.000000
    12  H    0.000000   0.000000   0.000000   0.000000   0.000000   0.000000
    13  N    0.264224  -0.110666  -0.108734   0.000049   0.004410   0.004010
    14  C   -0.028236   0.009513   0.004968  -0.000251   0.000076  -0.000096
    15  C    0.003326   0.000403  -0.000044   0.000007  -0.000017   0.000000
    16  O    0.000450  -0.000005  -0.000042   0.000000  -0.000010   0.000000
    17  C   -0.002194  -0.003021  -0.000305  -0.000001   0.000009   0.000011
    18  C   -0.001167   0.000187   0.000136  -0.000001  -0.000008  -0.000002
    19  N   -0.000003  -0.000002   0.000000   0.000000   0.000000   0.000000
    20  C    0.000108   0.000426   0.000003   0.000000   0.000000   0.000000
    21  H   -0.012778   0.001911  -0.000463   0.000079   0.000740   0.000011
    22  H    0.000150   0.007110   0.000251  -0.000001  -0.000004  -0.000010
    23  H    0.000224  -0.000077  -0.000009   0.000000   0.000003   0.000000
    24  H   -0.000048  -0.000041   0.000001   0.000000   0.000000   0.000000
    25  H    0.000174   0.001807   0.000040   0.000000   0.000000  -0.000001
    26  H    0.000000  -0.000006   0.000000   0.000000   0.000000   0.000000
    27  H    0.000237   0.001083  -0.000147   0.000005  -0.000002  -0.000009
    28  H    0.000000   0.000000   0.000000   0.000000   0.000000   0.000000
    29  H   -0.000003  -0.000003   0.000000   0.000000   0.000000   0.000000
    30  H    0.000001  -0.000003   0.000000   0.000000   0.000000   0.000000
    31  H   -0.000005  -0.000006   0.000000   0.000000   0.000000   0.000000
              7          8          9         10         11         12
     1  C   -0.000090   0.000002  -0.000014   0.000000   0.000000   0.000000
     2  O   -0.000002   0.000000  -0.000003   0.000000   0.000000   0.000000
     3  C    0.000000   0.000000   0.000000   0.000000   0.000000   0.000000
     4  H    0.000000   0.000000   0.000000   0.000000   0.000000   0.000000
     5  H    0.000000   0.000000   0.000000   0.000000   0.000000   0.000000
     6  H    0.000000   0.000000   0.000000   0.000000   0.000000   0.000000
     7  N    7.319053   0.182836   0.327143  -0.037683  -0.044412  -0.036667
     8  C    0.182836   4.938316  -0.021082   0.402965   0.406640   0.397714
     9  H    0.327143  -0.021082   0.322059   0.002624   0.000910  -0.004273
    10  H   -0.037683   0.402965   0.002624   0.469350  -0.029178  -0.023319
    11  H   -0.044412   0.406640   0.000910  -0.029178   0.500393  -0.029523
    12  H   -0.036667   0.397714  -0.004273  -0.023319  -0.029523   0.504265
    13  N    0.002030  -0.000083  -0.000023  -0.000006   0.000013   0.000000
    14  C   -0.113467   0.004350   0.000509   0.000151  -0.000193  -0.000013
    15  C    0.289363  -0.030576  -0.023315  -0.003224  -0.003677   0.004668
    16  O   -0.099559   0.006572   0.002404   0.003199   0.000994   0.000304
    17  C   -0.001305  -0.000233   0.000288   0.000016  -0.000007   0.000007
    18  C   -0.000042   0.000003  -0.000036   0.000000   0.000000   0.000000
    19  N    0.000000   0.000000   0.000000   0.000000   0.000000   0.000000
    20  C    0.000000   0.000000   0.000001   0.000000   0.000000   0.000000
    21  H    0.001021  -0.000027  -0.000037  -0.000005   0.000004   0.000000
    22  H    0.004296  -0.000042   0.001828  -0.000002  -0.000004  -0.000010
    23  H    0.000523  -0.000010   0.000005   0.000003   0.000000   0.000000
    24  H    0.003779  -0.000043   0.000046  -0.000024   0.000006  -0.000011
    25  H    0.000009   0.000000  -0.000001   0.000000   0.000000   0.000000
    26  H    0.000000   0.000000   0.000000   0.000000   0.000000   0.000000
    27  H   -0.000003   0.000000   0.000000   0.000000   0.000000   0.000000
    28  H    0.000000   0.000000   0.000000   0.000000   0.000000   0.000000
    29  H   -0.000001   0.000000   0.000000   0.000000   0.000000   0.000000
    30  H    0.000000   0.000000   0.000000   0.000000   0.000000   0.000000
    31  H    0.000000   0.000000   0.000000   0.000000   0.000000   0.000000
             13         14         15         16         17         18
     1  C    0.264224  -0.028236   0.003326   0.000450  -0.002194  -0.001167
     2  O   -0.110666   0.009513   0.000403  -0.000005  -0.003021   0.000187
     3  C   -0.108734   0.004968  -0.000044  -0.000042  -0.000305   0.000136
     4  H    0.000049  -0.000251   0.000007   0.000000  -0.000001  -0.000001
     5  H    0.004410   0.000076  -0.000017  -0.000010   0.000009  -0.000008
     6  H    0.004010  -0.000096   0.000000   0.000000   0.000011  -0.000002
     7  N    0.002030  -0.113467   0.289363  -0.099559  -0.001305  -0.000042
     8  C   -0.000083   0.004350  -0.030576   0.006572  -0.000233   0.000003
     9  H   -0.000023   0.000509  -0.023315   0.002404   0.000288  -0.000036
    10  H   -0.000006   0.000151  -0.003224   0.003199   0.000016   0.000000
    11  H    0.000013  -0.000193  -0.003677   0.000994  -0.000007   0.000000
    12  H    0.000000  -0.000013   0.004668   0.000304   0.000007   0.000000
    13  N    7.401523   0.204301  -0.041208  -0.008312  -0.064696  -0.004915
    14  C    0.204301   5.062514   0.380094  -0.084459   0.330190  -0.037204
    15  C   -0.041208   0.380094   4.155038   0.592129  -0.049115   0.003851
    16  O   -0.008312  -0.084459   0.592129   8.173113  -0.001033  -0.000068
    17  C   -0.064696   0.330190  -0.049115  -0.001033   5.160490   0.324124
    18  C   -0.004915  -0.037204   0.003851  -0.000068   0.324124   5.173681
    19  N    0.000003  -0.000059   0.000000   0.000000   0.002616  -0.064610
    20  C   -0.000274   0.004427  -0.000040   0.000000  -0.045845   0.295884
    21  H    0.310434  -0.030500  -0.005215   0.021571   0.002573  -0.000096
    22  H   -0.043513   0.407819  -0.035885   0.001930  -0.043397  -0.004656
    23  H    0.001574  -0.037479  -0.002461   0.003329   0.396803  -0.038358
    24  H    0.004129  -0.038062  -0.003057  -0.000031   0.389626  -0.040501
    25  H    0.000471  -0.002620   0.000003  -0.000002  -0.031606   0.399838
    26  H    0.000000  -0.000003   0.000000   0.000000  -0.000060  -0.000164
    27  H    0.003085  -0.003802  -0.000080   0.000006  -0.029673   0.398732
    28  H    0.000000   0.000001   0.000000   0.000000  -0.000061   0.003215
    29  H   -0.000002  -0.000100  -0.000003   0.000000  -0.000366  -0.031693
    30  H    0.000023  -0.000093  -0.000001   0.000000  -0.000039  -0.031484
    31  H   -0.000002  -0.000001   0.000000   0.000000  -0.000075  -0.000103
             19         20         21         22         23         24
     1  C   -0.000003   0.000108  -0.012778   0.000150   0.000224  -0.000048
     2  O   -0.000002   0.000426   0.001911   0.007110  -0.000077  -0.000041
     3  C    0.000000   0.000003  -0.000463   0.000251  -0.000009   0.000001
     4  H    0.000000   0.000000   0.000079  -0.000001   0.000000   0.000000
     5  H    0.000000   0.000000   0.000740  -0.000004   0.000003   0.000000
     6  H    0.000000   0.000000   0.000011  -0.000010   0.000000   0.000000
     7  N    0.000000   0.000000   0.001021   0.004296   0.000523   0.003779
     8  C    0.000000   0.000000  -0.000027  -0.000042  -0.000010  -0.000043
     9  H    0.000000   0.000001  -0.000037   0.001828   0.000005   0.000046
    10  H    0.000000   0.000000  -0.000005  -0.000002   0.000003  -0.000024
    11  H    0.000000   0.000000   0.000004  -0.000004   0.000000   0.000006
    12  H    0.000000   0.000000   0.000000  -0.000010   0.000000  -0.000011
    13  N    0.000003  -0.000274   0.310434  -0.043513   0.001574   0.004129
    14  C   -0.000059   0.004427  -0.030500   0.407819  -0.037479  -0.038062
    15  C    0.000000  -0.000040  -0.005215  -0.035885  -0.002461  -0.003057
    16  O    0.000000   0.000000   0.021571   0.001930   0.003329  -0.000031
    17  C    0.002616  -0.045845   0.002573  -0.043397   0.396803   0.389626
    18  C   -0.064610   0.295884  -0.000096  -0.004656  -0.038358  -0.040501
    19  N    6.943159   0.131201   0.000000   0.000000  -0.000025   0.000003
    20  C    0.131201   5.173702   0.000004  -0.000052  -0.004724  -0.005404
    21  H    0.000000   0.000004   0.276985   0.002270   0.000449  -0.000033
    22  H    0.000000  -0.000052   0.002270   0.473860   0.003540   0.001465
    23  H   -0.000025  -0.004724   0.000449   0.003540   0.484677  -0.021133
    24  H    0.000003  -0.005404  -0.000033   0.001465  -0.021133   0.517526
    25  H   -0.001890  -0.044369  -0.000010   0.001439   0.003122  -0.000779
    26  H    0.305124  -0.015602   0.000000  -0.000001   0.000002   0.000011
    27  H   -0.001796  -0.045395   0.000007   0.000507  -0.001446   0.003482
    28  H    0.310839  -0.016704   0.000000   0.000000   0.000001   0.000001
    29  H   -0.036356   0.399394   0.000000   0.000016   0.000262   0.001436
    30  H   -0.035860   0.398748   0.000000  -0.000003   0.001398   0.000341
    31  H    0.304957  -0.015433   0.000000   0.000000   0.000009   0.000002
             25         26         27         28         29         30
     1  C    0.000174   0.000000   0.000237   0.000000  -0.000003   0.000001
     2  O    0.001807  -0.000006   0.001083   0.000000  -0.000003  -0.000003
     3  C    0.000040   0.000000  -0.000147   0.000000   0.000000   0.000000
     4  H    0.000000   0.000000   0.000005   0.000000   0.000000   0.000000
     5  H    0.000000   0.000000  -0.000002   0.000000   0.000000   0.000000
     6  H   -0.000001   0.000000  -0.000009   0.000000   0.000000   0.000000
     7  N    0.000009   0.000000  -0.000003   0.000000  -0.000001   0.000000
     8  C    0.000000   0.000000   0.000000   0.000000   0.000000   0.000000
     9  H   -0.000001   0.000000   0.000000   0.000000   0.000000   0.000000
    10  H    0.000000   0.000000   0.000000   0.000000   0.000000   0.000000
    11  H    0.000000   0.000000   0.000000   0.000000   0.000000   0.000000
    12  H    0.000000   0.000000   0.000000   0.000000   0.000000   0.000000
    13  N    0.000471   0.000000   0.003085   0.000000  -0.000002   0.000023
    14  C   -0.002620  -0.000003  -0.003802   0.000001  -0.000100  -0.000093
    15  C    0.000003   0.000000  -0.000080   0.000000  -0.000003  -0.000001
    16  O   -0.000002   0.000000   0.000006   0.000000   0.000000   0.000000
    17  C   -0.031606  -0.000060  -0.029673  -0.000061  -0.000366  -0.000039
    18  C    0.399838  -0.000164   0.398732   0.003215  -0.031693  -0.031484
    19  N   -0.001890   0.305124  -0.001796   0.310839  -0.036356  -0.035860
    20  C   -0.044369  -0.015602  -0.045395  -0.016704   0.399394   0.398748
    21  H   -0.000010   0.000000   0.000007   0.000000   0.000000   0.000000
    22  H    0.001439  -0.000001   0.000507   0.000000   0.000016  -0.000003
    23  H    0.003122   0.000002  -0.001446   0.000001   0.000262   0.001398
    24  H   -0.000779   0.000011   0.003482   0.000001   0.001436   0.000341
    25  H    0.478289   0.002889  -0.023450  -0.000085  -0.002138   0.003083
    26  H    0.002889   0.262452  -0.000060  -0.009877  -0.002088   0.002703
    27  H   -0.023450  -0.000060   0.483159  -0.000083   0.003135  -0.002066
    28  H   -0.000085  -0.009877  -0.000083   0.258267  -0.001675  -0.001698
    29  H   -0.002138  -0.002088   0.003135  -0.001675   0.437619  -0.020905
    30  H    0.003083   0.002703  -0.002066  -0.001698  -0.020905   0.433754
    31  H   -0.000102  -0.010568   0.003029  -0.009733   0.002726  -0.002130
             31
     1  C   -0.000005
     2  O   -0.000006
     3  C    0.000000
     4  H    0.000000
     5  H    0.000000
     6  H    0.000000
     7  N    0.000000
     8  C    0.000000
     9  H    0.000000
    10  H    0.000000
    11  H    0.000000
    12  H    0.000000
    13  N   -0.000002
    14  C   -0.000001
    15  C    0.000000
    16  O    0.000000
    17  C   -0.000075
    18  C   -0.000103
    19  N    0.304957
    20  C   -0.015433
    21  H    0.000000
    22  H    0.000000
    23  H    0.000009
    24  H    0.000002
    25  H   -0.000102
    26  H   -0.010568
    27  H    0.003029
    28  H   -0.009733
    29  H    0.002726
    30  H   -0.002130
    31  H    0.262393
 Mulliken atomic charges:
              1
     1  C    0.743084
     2  O   -0.637793
     3  C   -0.581336
     4  H    0.222801
     5  H    0.189759
     6  H    0.216201
     7  N   -0.796820
     8  C   -0.287301
     9  H    0.390969
    10  H    0.215131
    11  H    0.198035
    12  H    0.186857
    13  N   -0.817847
    14  C   -0.032275
    15  C    0.769036
    16  O   -0.612478
    17  C   -0.333719
    18  C   -0.344542
    19  N   -0.857301
    20  C   -0.210058
    21  H    0.431106
    22  H    0.221099
    23  H    0.209798
    24  H    0.187313
    25  H    0.215888
    26  H    0.465247
    27  H    0.211542
    28  H    0.467590
    29  H    0.250743
    30  H    0.254229
    31  H    0.465040
 Sum of Mulliken charges=   1.00000
 Atomic charges with hydrogens summed into heavy atoms:
              1
     1  C    0.743084
     2  O   -0.637793
     3  C    0.047426
     4  H    0.000000
     5  H    0.000000
     6  H    0.000000
     7  N   -0.405851
     8  C    0.312722
     9  H    0.000000
    10  H    0.000000
    11  H    0.000000
    12  H    0.000000
    13  N   -0.386741
    14  C    0.188824
    15  C    0.769036
    16  O   -0.612478
    17  C    0.063392
    18  C    0.082888
    19  N    0.540577
    20  C    0.294914
    21  H    0.000000
    22  H    0.000000
    23  H    0.000000
    24  H    0.000000
    25  H    0.000000
    26  H    0.000000
    27  H    0.000000
    28  H    0.000000
    29  H    0.000000
    30  H    0.000000
    31  H    0.000000
 Sum of Mulliken charges=   1.00000
 Electronic spatial extent (au):  <R**2>=  3449.4033
 Charge=     1.0000 electrons
 Dipole moment (field-independent basis, Debye):
    X=    13.9616    Y=    -7.8865    Z=    -0.6543  Tot=    16.0484
 Quadrupole moment (field-independent basis, Debye-Ang):
   XX=    -0.7582   YY=   -53.2912   ZZ=   -77.9073
   XY=   -26.5748   XZ=    12.6275   YZ=     7.4015
 Traceless Quadrupole moment (field-independent basis, Debye-Ang):
   XX=    43.2273   YY=    -9.3057   ZZ=   -33.9217
   XY=   -26.5748   XZ=    12.6275   YZ=     7.4015
 Octapole moment (field-independent basis, Debye-Ang**2):
  XXX=   297.7895  YYY=    -3.7370  ZZZ=    -5.5830  XYY=    45.2072
  XXY=  -149.2340  XXZ=   -18.1980  XZZ=    11.8767  YZZ=   -14.9696
  YYZ=    10.6644  XYZ=     1.2260
 Hexadecapole moment (field-independent basis, Debye-Ang**3):
 XXXX=  -933.2752 YYYY= -1305.0307 ZZZZ=  -257.0469 XXXY=  -465.1737
 XXXZ=    74.7122 YYYX=  -142.0079 YYYZ=    20.0952 ZZZX=    15.9460
 ZZZY=    17.6987 XXYY=  -398.8917 XXZZ=  -441.4749 YYZZ=  -290.2525
 XXYZ=    21.7954 YYXZ=    22.7214 ZZXY=   -25.6706
 N-N= 8.575598283500D+02 E-N=-3.168071615933D+03  KE= 6.254390265473D+02

 Test job not archived.
 1\1\GINC-CYPRESS\FOpt\RHF\6-31G(d)\C8H18N3O2(1+)\RENFREW\22-Sep-2008\0
 \\# HF/6-31G(d) Opt=ModRedundant SCF=Tight Test\\scan rotamers\\1,1\C,
 0.7688429613,-0.0836781303,-0.4297402772\O,1.2585701675,-0.9434807294,
 -1.1194648807\C,-0.5492751719,-0.269912006,0.2829970559\H,-0.356446162
 5,-0.6894358934,1.2651367334\H,-1.0867901293,0.6617413769,0.4118605683
 \H,-1.1557357396,-0.9720152234,-0.2707594217\N,4.6252100314,2.34077596
 3,0.5745680341\C,5.2757267188,3.26132262,1.4935716064\H,5.1184608156,1
 .5183502931,0.3121764953\H,4.9564402538,4.2698616542,1.2798573952\H,5.
 0343216511,3.0314278688,2.524238914\H,6.3450167052,3.1900297746,1.3531
 704911\N,1.3772648342,1.1094295087,-0.2366711123\C,2.7416164188,1.3641
 979748,-0.6349888396\C,3.3060550325,2.4041098526,0.3384186578\O,2.5832
 905169,3.2481224341,0.7961994\C,2.8665234061,1.9401568395,-2.060261248
 2\C,2.3523709421,0.984785417,-3.140350955\N,2.012723138,0.5800654443,-
 5.5589920821\C,2.56407462,1.5567432141,-4.5342928238\H,0.9736920996,1.
 7916042771,0.3687159681\H,3.2979196501,0.436935342,-0.5756551659\H,2.3
 174370771,2.8757980587,-2.0974011606\H,3.9122768385,2.1720134592,-2.24
 53114552\H,2.8546927042,0.0273150378,-3.0554392363\H,2.4707704421,-0.3
 186310732,-5.4875247782\H,1.2976726676,0.795604878,-2.9866965262\H,2.1
 31195262,0.9097052543,-6.5072635305\H,3.606676277,1.6935188081,-4.7825
 961452\H,2.0370358211,2.4866756097,-4.6922241395\H,1.0253701506,0.4188
 62095,-5.4122775413\\Version=IA64L-G03RevE.01\State=1-A\HF=-626.323518
 2\RMSD=4.755e-09\RMSF=2.275e-04\Thermal=0.\Dipole=0.3285197,-0.7507667
 ,-6.2605003\PG=C01 [X(C8H18N3O2)]\\@


 THOSE WITH THE GOLD MAKE THE RULES.

             -- PETER'S GOLDEN RULE
 Job cpu time:  0 days  0 hours 43 minutes 40.4 seconds.
 File lengths (MBytes):  RWF=     48 Int=      0 D2E=      0 Chk=     10 Scr=      1
 Normal termination of Gaussian 03 at Mon Sep 22 09:41:40 2008.
